#BIOSYM hessian 1
@Type: Hessian Update
@Units
 distance: 	A
 energy: 	Kcal/Mol
#header
@natom 4

#label
G1      N2      G3      N4

#element
Ga N  Ga N 

#matrix
12
 0.000000000000E+00
 0.000000000000E+00 0.000000000000E+00
 -7.697258672451E-12 -4.104150823996E-12 8.215703789802E+02
 0.000000000000E+00 0.000000000000E+00 1.095006399645E-11 0.000000000000E+00
 0.000000000000E+00 0.000000000000E+00 5.875056175758E-12 0.000000000000E+00 0.000000000000E+00
 7.697258672451E-12 4.104150823996E-12 -8.215703789802E+02 -1.095006399645E-11 -5.875056175758E-12 8.215703789802E+02
 0.000000000000E+00 0.000000000000E+00 -1.094017084376E-11 0.000000000000E+00 0.000000000000E+00 1.094017084376E-11 0.000000000000E+00
 0.000000000000E+00 0.000000000000E+00 -5.847094512309E-12 0.000000000000E+00 0.000000000000E+00 5.847094512309E-12 0.000000000000E+00 0.000000000000E+00
 -7.697258672451E-12 -4.104150823996E-12 8.215703789802E+02 1.095006399645E-11 5.875056175758E-12 -8.215703789802E+02 -1.094017084376E-11 -5.847094512309E-12 8.215703789802E+02
 0.000000000000E+00 0.000000000000E+00 7.687331424477E-12 0.000000000000E+00 0.000000000000E+00 -7.687331424477E-12 0.000000000000E+00 0.000000000000E+00 7.687331424477E-12 0.000000000000E+00
 0.000000000000E+00 0.000000000000E+00 4.094830269513E-12 0.000000000000E+00 0.000000000000E+00 -4.094830269513E-12 0.000000000000E+00 0.000000000000E+00 4.094830269513E-12 0.000000000000E+00 0.000000000000E+00
 7.697258672451E-12 4.104150823996E-12 -8.215703789802E+02 -1.095006399645E-11 -5.875056175758E-12 8.215703789802E+02 1.094017084376E-11 5.847094512309E-12 -8.215703789802E+02 -7.687331424477E-12 -4.094830269513E-12 8.215703789802E+02

