#BIOSYM hessian 1
@Type: Hessian Update
@Units
 distance: 	A
 energy: 	Kcal/Mol
#header
@natom 4

#label
G1      N2      G3      N4

#element
Ga N  Ga N 

#matrix
12
 0.000000000000E+00
 0.000000000000E+00 0.000000000000E+00
 4.464603783693E-12 1.344578588808E-11 8.266076854691E+02
 0.000000000000E+00 0.000000000000E+00 -6.707867571513E-12 0.000000000000E+00
 0.000000000000E+00 0.000000000000E+00 -1.323926209513E-11 0.000000000000E+00 0.000000000000E+00
 -4.464603783693E-12 -1.344578588808E-11 -8.266076854691E+02 6.707867571513E-12 1.323926209513E-11 8.266076854691E+02
 0.000000000000E+00 0.000000000000E+00 6.709783190381E-12 0.000000000000E+00 0.000000000000E+00 -6.709783190381E-12 0.000000000000E+00
 0.000000000000E+00 0.000000000000E+00 1.323615647419E-11 0.000000000000E+00 0.000000000000E+00 -1.323615647419E-11 0.000000000000E+00 0.000000000000E+00
 4.464603783693E-12 1.344578588808E-11 8.266076854691E+02 -6.707867571513E-12 -1.323926209513E-11 -8.266076854691E+02 6.709783190381E-12 1.323615647419E-11 8.266076854691E+02
 0.000000000000E+00 0.000000000000E+00 -4.474009781897E-12 0.000000000000E+00 0.000000000000E+00 4.474009781897E-12 0.000000000000E+00 0.000000000000E+00 -4.474009781897E-12 0.000000000000E+00
 0.000000000000E+00 0.000000000000E+00 -1.344112745666E-11 0.000000000000E+00 0.000000000000E+00 1.344112745666E-11 0.000000000000E+00 0.000000000000E+00 -1.344112745666E-11 0.000000000000E+00 0.000000000000E+00
 -4.464603783693E-12 -1.344578588808E-11 -8.266076854691E+02 6.707867571513E-12 1.323926209513E-11 8.266076854691E+02 -6.709783190381E-12 -1.323615647419E-11 -8.266076854691E+02 4.474009781897E-12 1.344112745666E-11 8.266076854691E+02

