#BIOSYM hessian 1
@Type: Hessian Update
@Units
 distance: 	A
 energy: 	Kcal/Mol
#header
@natom 4

#label
G1      N2      G3      N4

#element
Ga N  Ga N 

#matrix
12
 0.000000000000E+00
 0.000000000000E+00 0.000000000000E+00
 0.000000000000E+00 7.692714606291E-12 8.282927784948E+02
 0.000000000000E+00 0.000000000000E+00 0.000000000000E+00 0.000000000000E+00
 0.000000000000E+00 0.000000000000E+00 -9.599203715580E-12 0.000000000000E+00 0.000000000000E+00
 0.000000000000E+00 -7.692714606291E-12 -8.282927784948E+02 0.000000000000E+00 9.599203715580E-12 8.282927784948E+02
 0.000000000000E+00 0.000000000000E+00 0.000000000000E+00 0.000000000000E+00 0.000000000000E+00 0.000000000000E+00 0.000000000000E+00
 0.000000000000E+00 0.000000000000E+00 9.600756231141E-12 0.000000000000E+00 0.000000000000E+00 -9.600756231141E-12 0.000000000000E+00 0.000000000000E+00
 0.000000000000E+00 7.692714606291E-12 8.282927784948E+02 0.000000000000E+00 -9.599203715580E-12 -8.282927784948E+02 0.000000000000E+00 9.600756231141E-12 8.282927784948E+02
 0.000000000000E+00 0.000000000000E+00 0.000000000000E+00 0.000000000000E+00 0.000000000000E+00 0.000000000000E+00 0.000000000000E+00 0.000000000000E+00 0.000000000000E+00 0.000000000000E+00
 0.000000000000E+00 0.000000000000E+00 -7.688057059607E-12 0.000000000000E+00 0.000000000000E+00 7.688057059607E-12 0.000000000000E+00 0.000000000000E+00 -7.688057059607E-12 0.000000000000E+00 0.000000000000E+00
 0.000000000000E+00 -7.692714606291E-12 -8.282927784948E+02 0.000000000000E+00 9.599203715580E-12 8.282927784948E+02 0.000000000000E+00 -9.600756231141E-12 -8.282927784948E+02 0.000000000000E+00 7.688057059607E-12 8.282927784948E+02

