#BIOSYM hessian 1
@Type: Hessian Update
@Units
 distance: 	A
 energy: 	Kcal/Mol
#header
@natom 4

#label
G1      N2      G3      N4

#element
Ga N  Ga N 

#matrix
12
 0.000000000000E+00
 0.000000000000E+00 0.000000000000E+00
 -2.230272848636E-12 -7.737617919153E-12 8.240249311593E+02
 0.000000000000E+00 0.000000000000E+00 2.328119080853E-12 0.000000000000E+00
 0.000000000000E+00 0.000000000000E+00 9.570293379732E-12 0.000000000000E+00 0.000000000000E+00
 2.230272848636E-12 7.737617919153E-12 -8.240249311593E+02 -2.328119080853E-12 -9.570293379732E-12 8.240249311593E+02
 0.000000000000E+00 0.000000000000E+00 -2.335884654839E-12 0.000000000000E+00 0.000000000000E+00 2.335884654839E-12 0.000000000000E+00
 0.000000000000E+00 0.000000000000E+00 -9.523699935819E-12 0.000000000000E+00 0.000000000000E+00 9.523699935819E-12 0.000000000000E+00 0.000000000000E+00
 -2.230272848636E-12 -7.737617919153E-12 8.240249311593E+02 2.328119080853E-12 9.570293379732E-12 -8.240249311593E+02 -2.335884654839E-12 -9.523699935819E-12 8.240249311593E+02
 0.000000000000E+00 0.000000000000E+00 2.242697767013E-12 0.000000000000E+00 0.000000000000E+00 -2.242697767013E-12 0.000000000000E+00 0.000000000000E+00 2.242697767013E-12 0.000000000000E+00
 0.000000000000E+00 0.000000000000E+00 7.697236934429E-12 0.000000000000E+00 0.000000000000E+00 -7.697236934429E-12 0.000000000000E+00 0.000000000000E+00 7.697236934429E-12 0.000000000000E+00 0.000000000000E+00
 2.230272848636E-12 7.737617919153E-12 -8.240249311593E+02 -2.328119080853E-12 -9.570293379732E-12 8.240249311593E+02 2.335884654839E-12 9.523699935819E-12 -8.240249311593E+02 -2.242697767013E-12 -7.697236934429E-12 8.240249311593E+02

