 Job started on host vgtPC
 at Tue Apr 18 21:41:56 2023

 +-------------------------------------------------+
 |                                                 |
 |      CCC   AA    SSS  TTTTT  EEEEE  PPPP        |
 |     C     A  A  S       T    E      P   P       |
 |     C     AAAA   SS     T    EEE    PPPP        |
 |     C     A  A     S    T    E      P           |
 |      CCC  A  A  SSS     T    EEEEE  P           |
 |                                                 |
 +-------------------------------------------------+
 |                                                 |
 | Materials Studio CASTEP version 2020            |
 | Ab Initio Total Energy Program                  |
 |                                                 |
 | Authors:                                        |
 | M. Segall, M. Probert, C. Pickard, P. Hasnip,   |
 | S. Clark, K. Refson, J. R. Yates, M. Payne      |
 |                                                 |
 | Contributors:                                   |
 | P. Lindan, P. Haynes, J. White, V. Milman,      |
 | N. Govind, M. Gibson, P. Tulip, V. Cocula,      |
 | B. Montanari, D. Quigley, M. Glover,            |
 | L. Bernasconi, A. Perlov, M. Plummer,           |
 | E. McNellis, J. Meyer, J. Gale, D. Jochym       |
 | J. Aarons, B. Walker, R. Gillen, D. Jones       |
 | T. Green, I. J. Bush, C. J. Armstrong,          |
 | E. J. Higgins, E. L. Brown, M. S. McFly,        |
 | J. Wilkins, B-C. Shih, P. J. P. Byrne,          |
 | R. J. Maurer, J. C. Womack, J. Dziedzic,        |
 | A. Bartok-Partay                                |
 |                                                 |
 | Copyright (c) 2000 - 2019                       |
 |                                                 |
 | Please cite                                     |
 |                                                 |
 |     "First principles methods using CASTEP"     |
 |                                                 |
 |         Zeitschrift fuer Kristallographie       |
 |           220(5-6) pp. 567-570 (2005)           |
 |                                                 |
 | S. J. Clark, M. D. Segall, C. J. Pickard,       |
 | P. J. Hasnip, M. J. Probert, K. Refson,         |
 | M. C. Payne                                     |
 |                                                 |
 |       in all publications arising from          |
 |              your use of CASTEP                 |
 |                                                 |
 +-------------------------------------------------+
 |                                                 |
 |              http://www.castep.org              |
 |                                                 |
 +-------------------------------------------------+
 
 
 This version was compiled for x86_64-windows-msvc2015 on Oct 17 2019
 Code version:    8433
 Intel(R) Math Kernel Library Version 2019.0.4 
 Fundamental constants values: CODATA 2014
 
License checkout of MS_castep successful
 
 
 Atomic calculation performed for Si: 1s2 2s2 2p6 3s2 3p2
 
 Converged in 54 iterations to an ae energy of -7886.857 eV
 
 Identity difference: 1.35E-04
 
   ============================================================                
   | Pseudopotential Report - Date of generation 18-04-2023   |                
   ------------------------------------------------------------                
   | Element: Si Ionic charge:  4.00 Level of theory: PBE     |                
   | Atomic Solver: Koelling-Harmon                           |                
   |                                                          |                
   |               Reference Electronic Structure             |                
   |         Orbital         Occupation         Energy        |                
   |            3s              2.000           -0.397        |                
   |            3p              2.000           -0.150        |                
   |                                                          |                
   |                 Pseudopotential Definition               |                
   |        Beta     l      e      Rc     scheme   norm       |                
   |          1      0   -0.397   1.797     qc      0         |                
   |          2      0    0.250   1.797     qc      0         |                
   |          3      1   -0.150   1.797     qc      0         |                
   |          4      1    0.250   1.797     qc      0         |                
   |          5      2    0.000   1.797     qc      0         |                
   |          6      2    0.250   1.797     qc      0         |                
   |         loc     3    0.000   1.797     pn      0         |                
   |                                                          |                
   | Augmentation charge Rinner = 1.255                       |                
   | Partial core correction Rc = 1.255                       |                
   ------------------------------------------------------------                
   | "3|1.8|3.6|5|7|30UU:31UU:32UU[]"                         |                
   ------------------------------------------------------------                
   |      Author: Chris J. Pickard, Cambridge University      |                
   ============================================================                
 
 Doing a self consistent calculation for the test configuration
 
 Atomic calculation performed for Si: 1s2 2s2 2p6 3s2 3p2
 
 Converged in 54 iterations to an ae energy of -7886.857 eV
 
 ---------------------------------------
 AE eigenvalue nl 10 =      -65.63192903
 AE eigenvalue nl 20 =       -5.12654326
 AE eigenvalue nl 21 =       -3.51173659
 AE eigenvalue nl 30 =       -0.39736430
 AE eigenvalue nl 31 =       -0.14998156
 ---------------------------------------
 PS eigenvalue nl 30 =       -0.39734684
 PS eigenvalue nl 31 =       -0.14996575
 ---------------------------------------
 Maximum eigenvalue error:   1.75E-05
 
 Derived cutoff energies: C=   1 M=   4 F=   4 E=   6
 
 Checking for ghost states up to   1.41091 Ha
 
 No Ghost States Identified
 
 ***************************************
 
 Pseudo atomic calculation performed for Si 3s2 3p2
 
 Converged in 11 iterations to a total energy of -165.0669 eV
 Calculation not parallelised.

 ************************************ Title ************************************
 CASTEP calculation from Materials Studio

 ***************************** General Parameters ******************************
  
 output verbosity                               : normal  (1)
 write checkpoint data to                       : Si-100.0Len.check
 type of calculation                            : single point energy
 stress calculation                             : off
 density difference calculation                 : off
 electron localisation func (ELF) calculation   : off
 Hirshfeld analysis                             : on
 molecular orbital projected DOS                : off
 deltaSCF calculation                           : off
 unlimited duration calculation
 timing information                             : on
 memory usage estimate                          : on
 write extra output files                       : on
 write final potential to formatted file        : off
 write final density to formatted file          : off
 write BibTeX reference list                    : on
 write OTFG pseudopotential files               : on
 write electrostatic potential file             : on
 write bands file                               : on
 checkpoint writing                             : both castep_bin and check files
  
 output         length unit                     : A
 output           mass unit                     : amu
 output           time unit                     : ps
 output         charge unit                     : e
 output           spin unit                     : hbar/2
 output         energy unit                     : eV
 output          force unit                     : eV/A
 output       velocity unit                     : A/ps
 output       pressure unit                     : GPa
 output     inv_length unit                     : 1/A
 output      frequency unit                     : cm-1
 output force constant unit                     : eV/A**2
 output         volume unit                     : A**3
 output   IR intensity unit                     : (D/A)**2/amu
 output         dipole unit                     : D
 output         efield unit                     : eV/A/e
 output        entropy unit                     : J/mol/K
 output    efield chi2 unit                     : pm/V
  
 wavefunctions paging                           : none
 random number generator seed                   : randomised (214157078)
 data distribution                              : optimal for this architecture
 optimization strategy                          : balance speed and memory

 *********************** Exchange-Correlation Parameters ***********************
  
 using functional                               : Perdew Burke Ernzerhof
 relativistic treatment                         : Koelling-Harmon
 DFT+D: Semi-empirical dispersion correction    : off

 ************************* Pseudopotential Parameters **************************
  
 pseudopotential representation                 : reciprocal space
 <beta|phi> representation                      : reciprocal space
 spin-orbit coupling                            : off

 **************************** Basis Set Parameters *****************************
  
 plane wave basis set cut-off                   :   400.0000   eV
 size of standard grid                          :     1.5000
 size of   fine   gmax                          :    15.3695   1/A
 largest prime factor in FFT                    :          5
 finite basis set correction                    : none

 **************************** Electronic Parameters ****************************
  
 number of  electrons                           :  32.00    
 net charge of system                           :  0.000    
 treating system as non-spin-polarized
 number of bands                                :         16

 ********************* Electronic Minimization Parameters **********************
  
 Method: Treating system as non-metallic,
         and number of  SD  steps               :          1
         and number of  CG  steps               :          4
  
 total energy / atom convergence tol.           : 0.2000E-05   eV
 eigen-energy convergence tolerance             : 0.1000E-05   eV
 max force / atom convergence tol.              : ignored
 convergence tolerance window                   :          3   cycles
 max. number of SCF cycles                      :        100
 periodic dipole correction                     : NONE

 ************************** Density Mixing Parameters **************************
  
 density-mixing scheme                          : Pulay
 max. length of mixing history                  :         20
 charge density mixing amplitude                : 0.5000    
 cut-off energy for mixing                      :  400.0       eV
 charge density mixing g-vector                 :  1.500       1/A

 *********************** Population Analysis Parameters ************************
  
 Population analysis with cutoff                :  3.000       A
 Population analysis output                     : summary only

 *******************************************************************************
  
 
                           -------------------------------
                                      Unit Cell
                           -------------------------------
        Real Lattice(A)                      Reciprocal Lattice(1/A)
     5.4300000     0.0000000     0.0000000        1.157124366   0.000000000   0.000000000
     0.0000000     5.4300000     0.0000000        0.000000000   1.157124366   0.000000000
     0.0000000     0.0000000     5.4300000        0.000000000   0.000000000   1.157124366
 
                       Lattice parameters(A)       Cell Angles
                    a =      5.430000          alpha =   90.000000
                    b =      5.430000          beta  =   90.000000
                    c =      5.430000          gamma =   90.000000
 
                       Current cell volume =           160.103007       A**3
                                   density =             1.403372   AMU/A**3
                                           =             2.330353     g/cm^3
 
                           -------------------------------
                                     Cell Contents
                           -------------------------------
                         Total number of ions in cell =    8
                      Total number of species in cell =    1
                        Max number of any one species =    8
 
            xxxxxxxxxxxxxxxxxxxxxxxxxxxxxxxxxxxxxxxxxxxxxxxxxxxxxxxxxxxx
            x  Element    Atom        Fractional coordinates of atoms  x
            x            Number           u          v          w      x
            x----------------------------------------------------------x
            x  Si           1         0.000000   0.000000   0.000000   x 
            x  Si           2         0.000000   0.500000   0.500000   x 
            x  Si           3         0.500000   0.000000   0.500000   x 
            x  Si           4         0.500000   0.500000   0.000000   x 
            x  Si           5         0.750000   0.250000   0.750000   x 
            x  Si           6         0.250000   0.250000   0.250000   x 
            x  Si           7         0.250000   0.750000   0.750000   x 
            x  Si           8         0.750000   0.750000   0.250000   x 
            xxxxxxxxxxxxxxxxxxxxxxxxxxxxxxxxxxxxxxxxxxxxxxxxxxxxxxxxxxxx
 
 
                         No user defined ionic velocities
 
                           -------------------------------
                                   Details of Species
                           -------------------------------
 
                               Mass of species in AMU
                                    Si   28.0849991
 
                          Electric Quadrupole Moment (Barn)
                                    Si    1.0000000 No Isotope Defined
 
                          Files used for pseudopotentials:
                                    Si 3|1.8|3.6|5|7|30UU:31UU:32UU[]
 
                           -------------------------------
                              k-Points For BZ Sampling
                           -------------------------------
                       MP grid size for SCF calculation is  2  2  2
                            with an offset of   0.000  0.000  0.000
                       Number of kpoints used =             1
 
                           -------------------------------
                               Symmetry and Constraints
                           -------------------------------
 
                      Cell is a supercell containing 4 primitive cells
                      Maximum deviation from symmetry =  0.00000         ANG
 
                      Number of symmetry operations   =         192
         There are no ionic constraints specified or generated for this cell
                      Point group of crystal =    32: Oh, m-3m, 4/m -3 2/m
                      Space group of crystal =   227: Fd-3m, F 4d 2 3 -1d
 
             Set iprint > 1 for details on symmetry rotations/translations
 
                         Centre of mass is NOT constrained
 
                         Number of cell constraints= 5
                         Cell constraints are:  1 1 1 0 0 0
 
                         External pressure/stress (GPa)
                          0.00000   0.00000   0.00000
                                    0.00000   0.00000
                                              0.00000
  
+---------------- MEMORY AND SCRATCH DISK ESTIMATES PER PROCESS --------------+
|                                                     Memory          Disk    |
| Baseline code, static data and system overhead        0.0 MB         0.0 MB |
| BLAS internal memory storage                          0.0 MB         0.0 MB |
| Model and support data                               92.7 MB        51.4 MB |
| Electronic energy minimisation requirements          12.4 MB         0.0 MB |
| Force calculation requirements                        2.9 MB         0.0 MB |
|                                               ----------------------------- |
| Approx. total storage required per process          105.1 MB        51.4 MB |
|                                                                             |
| Requirements will fluctuate during execution and may exceed these estimates |
+-----------------------------------------------------------------------------+
Calculating total energy with cut-off of  400.000 eV.
------------------------------------------------------------------------ <-- SCF
SCF loop      Energy                           Energy gain       Timer   <-- SCF
                                               per atom          (sec)   <-- SCF
------------------------------------------------------------------------ <-- SCF
Initial  -6.92638039E+001                                          4.78  <-- SCF
      1  -1.24420787E+003                    1.46868008E+002       4.89  <-- SCF
      2  -1.36032466E+003                    1.45145990E+001       4.98  <-- SCF
      3  -1.36380242E+003                    4.34719158E-001       5.06  <-- SCF
      4  -1.36342997E+003                   -4.65554939E-002       5.16  <-- SCF
      5  -1.36321304E+003                   -2.71166295E-002       5.27  <-- SCF
      6  -1.36323028E+003                    2.15550386E-003       5.38  <-- SCF
      7  -1.36323116E+003                    1.09768792E-004       5.47  <-- SCF
      8  -1.36323121E+003                    6.53614740E-006       5.53  <-- SCF
      9  -1.36323121E+003                    1.86696153E-007       5.59  <-- SCF
     10  -1.36323122E+003                    4.38784421E-008       5.67  <-- SCF
------------------------------------------------------------------------ <-- SCF
 
Final energy =  -1363.231215133     eV
(energy not corrected for finite basis set)
 

Writing analysis data to Si-100.0Len.castep_bin

Writing model to Si-100.0Len.check
 
 ******************** Symmetrised Forces ********************
 *                                                          *
 *               Cartesian components (eV/A)                *
 * -------------------------------------------------------- *
 *                         x            y            z      *
 *                                                          *
 * Si              1      0.00000     -0.00000      0.00000 *
 * Si              2     -0.00000      0.00000     -0.00000 *
 * Si              3     -0.00000      0.00000      0.00000 *
 * Si              4      0.00000      0.00000     -0.00000 *
 * Si              5      0.00000      0.00000     -0.00000 *
 * Si              6     -0.00000      0.00000     -0.00000 *
 * Si              7      0.00000     -0.00000     -0.00000 *
 * Si              8     -0.00000      0.00000     -0.00000 *
 *                                                          *
 ************************************************************
 
 Pseudo atomic calculation performed for Si 3s2 3p2
 
 Converged in 11 iterations to a total energy of -165.0669 eV
Charge spilling parameter for spin component 1 = 0.86%
 
     Atomic Populations (Mulliken)
     -----------------------------
Species          Ion     s      p      d      f     Total  Charge (e)
=====================================================================
  Si              1     1.35   2.65   0.00   0.00   4.00     0.00
  Si              2     1.35   2.65   0.00   0.00   4.00     0.00
  Si              3     1.35   2.65   0.00   0.00   4.00     0.00
  Si              4     1.35   2.65   0.00   0.00   4.00     0.00
  Si              5     1.35   2.65   0.00   0.00   4.00     0.00
  Si              6     1.35   2.65   0.00   0.00   4.00     0.00
  Si              7     1.35   2.65   0.00   0.00   4.00     0.00
  Si              8     1.35   2.65   0.00   0.00   4.00     0.00
=====================================================================
 
                 Bond                   Population      Length (A)
======================================================================
              Si 1 -- Si 8                   0.75        2.35126
              Si 1 -- Si 7                   0.75        2.35126
              Si 1 -- Si 5                   0.75        2.35126
              Si 4 -- Si 7                   0.75        2.35126
              Si 4 -- Si 6                   0.75        2.35126
              Si 4 -- Si 5                   0.75        2.35126
              Si 3 -- Si 8                   0.75        2.35126
              Si 3 -- Si 7                   0.75        2.35126
              Si 3 -- Si 6                   0.75        2.35126
              Si 2 -- Si 8                   0.75        2.35126
              Si 2 -- Si 6                   0.75        2.35126
              Si 2 -- Si 5                   0.75        2.35126
              Si 1 -- Si 6                   0.75        2.35126
              Si 4 -- Si 8                   0.75        2.35126
              Si 3 -- Si 5                   0.75        2.35126
              Si 2 -- Si 7                   0.75        2.35126
======================================================================
 
 
     Hirshfeld Analysis
     ------------------
Species   Ion     Hirshfeld Charge (e)
======================================
  Si       1                -0.00
  Si       2                 0.00
  Si       3                 0.00
  Si       4                 0.00
  Si       5                -0.00
  Si       6                -0.00
  Si       7                -0.00
  Si       8                -0.00
======================================
 

Writing analysis data to Si-100.0Len.castep_bin

Writing model to Si-100.0Len.check
 
 A BibTeX formatted list of references used in this run has been written to 
 Si-100.0Len.bib
 
Initialisation time =      4.61 s
Calculation time    =      1.20 s
Finalisation time   =      0.00 s
Total time          =      5.81 s
