#BIOSYM hessian 1
@Type: Hessian Update
@Units
 distance: 	A
 energy: 	Kcal/Mol
#header
@natom 4

#label
G1      N2      G3      N4

#element
Ga N  Ga N 

#matrix
12
 0.000000000000E+00
 0.000000000000E+00 0.000000000000E+00
 1.810837713027E-12 1.227094509216E-12 8.223422300001E+02
 0.000000000000E+00 0.000000000000E+00 -1.968302718522E-12 0.000000000000E+00
 0.000000000000E+00 0.000000000000E+00 0.000000000000E+00 0.000000000000E+00 0.000000000000E+00
 -1.810837713027E-12 -1.227094509216E-12 -8.223422300001E+02 1.968302718522E-12 0.000000000000E+00 8.223422300001E+02
 0.000000000000E+00 0.000000000000E+00 1.967193257902E-12 0.000000000000E+00 0.000000000000E+00 -1.967193257902E-12 0.000000000000E+00
 0.000000000000E+00 0.000000000000E+00 0.000000000000E+00 0.000000000000E+00 0.000000000000E+00 0.000000000000E+00 0.000000000000E+00 0.000000000000E+00
 1.810837713027E-12 1.227094509216E-12 8.223422300001E+02 -1.968302718522E-12 0.000000000000E+00 -8.223422300001E+02 1.967193257902E-12 0.000000000000E+00 8.223422300001E+02
 0.000000000000E+00 0.000000000000E+00 -1.813126471994E-12 0.000000000000E+00 0.000000000000E+00 1.813126471994E-12 0.000000000000E+00 0.000000000000E+00 -1.813126471994E-12 0.000000000000E+00
 0.000000000000E+00 0.000000000000E+00 -1.236414214350E-12 0.000000000000E+00 0.000000000000E+00 1.236414214350E-12 0.000000000000E+00 0.000000000000E+00 -1.236414214350E-12 0.000000000000E+00 0.000000000000E+00
 -1.810837713027E-12 -1.227094509216E-12 -8.223422300001E+02 1.968302718522E-12 0.000000000000E+00 8.223422300001E+02 -1.967193257902E-12 0.000000000000E+00 -8.223422300001E+02 1.813126471994E-12 1.236414214350E-12 8.223422300001E+02

