#BIOSYM hessian 1
@Type: Hessian Update
@Units
 distance: 	A
 energy: 	Kcal/Mol
#header
@natom 4

#label
G1      N2      G3      N4

#element
Ga N  Ga N 

#matrix
12
 0.000000000000E+00
 0.000000000000E+00 0.000000000000E+00
 7.297015481008E-12 -8.409118528002E-12 8.257544138552E+02
 0.000000000000E+00 0.000000000000E+00 -1.019674633209E-11 0.000000000000E+00
 0.000000000000E+00 0.000000000000E+00 8.284884089915E-12 0.000000000000E+00 0.000000000000E+00
 -7.297015481008E-12 8.409118528002E-12 -8.257544138552E+02 1.019674633209E-11 -8.284884089915E-12 8.257544138552E+02
 0.000000000000E+00 0.000000000000E+00 1.017971409678E-11 0.000000000000E+00 0.000000000000E+00 -1.017971409678E-11 0.000000000000E+00
 0.000000000000E+00 0.000000000000E+00 -8.274013576583E-12 0.000000000000E+00 0.000000000000E+00 8.274013576583E-12 0.000000000000E+00 0.000000000000E+00
 7.297015481008E-12 -8.409118528002E-12 8.257544138552E+02 -1.019674633209E-11 8.284884089915E-12 -8.257544138552E+02 1.017971409678E-11 -8.274013576583E-12 8.257544138552E+02
 0.000000000000E+00 0.000000000000E+00 -7.267764628004E-12 0.000000000000E+00 0.000000000000E+00 7.267764628004E-12 0.000000000000E+00 0.000000000000E+00 -7.267764628004E-12 0.000000000000E+00
 0.000000000000E+00 0.000000000000E+00 8.379612848956E-12 0.000000000000E+00 0.000000000000E+00 -8.379612848956E-12 0.000000000000E+00 0.000000000000E+00 8.379612848956E-12 0.000000000000E+00 0.000000000000E+00
 -7.297015481008E-12 8.409118528002E-12 -8.257544138552E+02 1.019674633209E-11 -8.284884089915E-12 8.257544138552E+02 -1.017971409678E-11 8.274013576583E-12 -8.257544138552E+02 7.267764628004E-12 -8.379612848956E-12 8.257544138552E+02

