#BIOSYM hessian 1
@Type: Hessian Update
@Units
 distance: 	A
 energy: 	Kcal/Mol
#header
@natom 4

#label
G1      N2      G3      N4

#element
Ga N  Ga N 

#matrix
12
 0.000000000000E+00
 0.000000000000E+00 0.000000000000E+00
 3.124751780769E-12 6.436077594338E-12 8.291437470266E+02
 0.000000000000E+00 0.000000000000E+00 -3.727357843305E-12 0.000000000000E+00
 0.000000000000E+00 0.000000000000E+00 -6.859871415673E-12 0.000000000000E+00 0.000000000000E+00
 -3.124751780769E-12 -6.436077594338E-12 -8.291437470266E+02 3.727357843305E-12 6.859871415673E-12 8.291437470266E+02
 0.000000000000E+00 0.000000000000E+00 3.723732787000E-12 0.000000000000E+00 0.000000000000E+00 -3.723732787000E-12 0.000000000000E+00
 0.000000000000E+00 0.000000000000E+00 6.849004907434E-12 0.000000000000E+00 0.000000000000E+00 -6.849004907434E-12 0.000000000000E+00 0.000000000000E+00
 3.124751780769E-12 6.436077594338E-12 8.291437470266E+02 -3.727357843305E-12 -6.859871415673E-12 -8.291437470266E+02 3.723732787000E-12 6.849004907434E-12 8.291437470266E+02
 0.000000000000E+00 0.000000000000E+00 -3.129034033270E-12 0.000000000000E+00 0.000000000000E+00 3.129034033270E-12 0.000000000000E+00 0.000000000000E+00 -3.129034033270E-12 0.000000000000E+00
 0.000000000000E+00 0.000000000000E+00 -6.432972877699E-12 0.000000000000E+00 0.000000000000E+00 6.432972877699E-12 0.000000000000E+00 0.000000000000E+00 -6.432972877699E-12 0.000000000000E+00 0.000000000000E+00
 -3.124751780769E-12 -6.436077594338E-12 -8.291437470266E+02 3.727357843305E-12 6.859871415673E-12 8.291437470266E+02 -3.723732787000E-12 -6.849004907434E-12 -8.291437470266E+02 3.129034033270E-12 6.432972877699E-12 8.291437470266E+02

