#BIOSYM hessian 1
@Type: Hessian Update
@Units
 distance: 	A
 energy: 	Kcal/Mol
#header
@natom 4

#label
G1      N2      G3      N4

#element
Ga N  Ga N 

#matrix
12
 0.000000000000E+00
 0.000000000000E+00 0.000000000000E+00
 1.179992788107E-11 -1.502114245778E-11 8.328947960698E+02
 0.000000000000E+00 0.000000000000E+00 -1.429424396366E-11 0.000000000000E+00
 0.000000000000E+00 0.000000000000E+00 1.632010890444E-11 0.000000000000E+00 0.000000000000E+00
 -1.179992788107E-11 1.502114245778E-11 -8.328947960698E+02 1.429424396366E-11 -1.632010890444E-11 8.328947960698E+02
 0.000000000000E+00 0.000000000000E+00 1.430224265463E-11 0.000000000000E+00 0.000000000000E+00 -1.430224265463E-11 0.000000000000E+00
 0.000000000000E+00 0.000000000000E+00 -1.629527800462E-11 0.000000000000E+00 0.000000000000E+00 1.629527800462E-11 0.000000000000E+00 0.000000000000E+00
 1.179992788107E-11 -1.502114245778E-11 8.328947960698E+02 -1.429424396366E-11 1.632010890444E-11 -8.328947960698E+02 1.430224265463E-11 -1.629527800462E-11 8.328947960698E+02
 0.000000000000E+00 0.000000000000E+00 -1.180422803508E-11 0.000000000000E+00 0.000000000000E+00 1.180422803508E-11 0.000000000000E+00 0.000000000000E+00 -1.180422803508E-11 0.000000000000E+00
 0.000000000000E+00 0.000000000000E+00 1.500407121416E-11 0.000000000000E+00 0.000000000000E+00 -1.500407121416E-11 0.000000000000E+00 0.000000000000E+00 1.500407121416E-11 0.000000000000E+00 0.000000000000E+00
 -1.179992788107E-11 1.502114245778E-11 -8.328947960698E+02 1.429424396366E-11 -1.632010890444E-11 8.328947960698E+02 -1.430224265463E-11 1.629527800462E-11 -8.328947960698E+02 1.180422803508E-11 -1.500407121416E-11 8.328947960698E+02

