#BIOSYM hessian 1
@Type: Hessian Update
@Units
 distance: 	A
 energy: 	Kcal/Mol
#header
@natom 4

#label
G1      N2      G3      N4

#element
Ga N  Ga N 

#matrix
12
 0.000000000000E+00
 0.000000000000E+00 0.000000000000E+00
 2.486440239729E-12 6.227733975366E-12 8.386927228256E+02
 0.000000000000E+00 0.000000000000E+00 -2.577956131272E-12 0.000000000000E+00
 0.000000000000E+00 0.000000000000E+00 -5.518873595107E-12 0.000000000000E+00 0.000000000000E+00
 -2.486440239729E-12 -6.227733975366E-12 -8.386927228256E+02 2.577956131272E-12 5.518873595107E-12 8.386927228256E+02
 0.000000000000E+00 0.000000000000E+00 2.568649430437E-12 0.000000000000E+00 0.000000000000E+00 -2.568649430437E-12 0.000000000000E+00
 0.000000000000E+00 0.000000000000E+00 5.528180295941E-12 0.000000000000E+00 0.000000000000E+00 -5.528180295941E-12 0.000000000000E+00 0.000000000000E+00
 2.486440239729E-12 6.227733975366E-12 8.386927228256E+02 -2.577956131272E-12 -5.518873595107E-12 -8.386927228256E+02 2.568649430437E-12 5.528180295941E-12 8.386927228256E+02
 0.000000000000E+00 0.000000000000E+00 -2.481786889312E-12 0.000000000000E+00 0.000000000000E+00 2.481786889312E-12 0.000000000000E+00 0.000000000000E+00 -2.481786889312E-12 0.000000000000E+00
 0.000000000000E+00 0.000000000000E+00 -6.235489559395E-12 0.000000000000E+00 0.000000000000E+00 6.235489559395E-12 0.000000000000E+00 0.000000000000E+00 -6.235489559395E-12 0.000000000000E+00 0.000000000000E+00
 -2.486440239729E-12 -6.227733975366E-12 -8.386927228256E+02 2.577956131272E-12 5.518873595107E-12 8.386927228256E+02 -2.568649430437E-12 -5.528180295941E-12 -8.386927228256E+02 2.481786889312E-12 6.235489559395E-12 8.386927228256E+02

