#BIOSYM hessian 1
@Type: Hessian Update
@Units
 distance: 	A
 energy: 	Kcal/Mol
#header
@natom 4

#label
G1      N2      G3      N4

#element
Ga N  Ga N 

#matrix
12
 0.000000000000E+00
 0.000000000000E+00 0.000000000000E+00
 2.015117998571E-12 4.880096864696E-12 8.209568317451E+02
 0.000000000000E+00 0.000000000000E+00 -2.147180473419E-12 0.000000000000E+00
 0.000000000000E+00 0.000000000000E+00 -5.891540054418E-12 0.000000000000E+00 0.000000000000E+00
 -2.015117998571E-12 -4.880096864696E-12 -8.209568317451E+02 2.147180473419E-12 5.891540054418E-12 8.209568317451E+02
 0.000000000000E+00 0.000000000000E+00 2.137858416371E-12 0.000000000000E+00 0.000000000000E+00 -2.137858416371E-12 0.000000000000E+00
 0.000000000000E+00 0.000000000000E+00 5.879110645021E-12 0.000000000000E+00 0.000000000000E+00 -5.879110645021E-12 0.000000000000E+00 0.000000000000E+00
 2.015117998571E-12 4.880096864696E-12 8.209568317451E+02 -2.147180473419E-12 -5.891540054418E-12 -8.209568317451E+02 2.137858416371E-12 5.879110645021E-12 8.209568317451E+02
 0.000000000000E+00 0.000000000000E+00 -2.013564322396E-12 0.000000000000E+00 0.000000000000E+00 2.013564322396E-12 0.000000000000E+00 0.000000000000E+00 -2.013564322396E-12 0.000000000000E+00
 0.000000000000E+00 0.000000000000E+00 -4.866113779124E-12 0.000000000000E+00 0.000000000000E+00 4.866113779124E-12 0.000000000000E+00 0.000000000000E+00 -4.866113779124E-12 0.000000000000E+00 0.000000000000E+00
 -2.015117998571E-12 -4.880096864696E-12 -8.209568317451E+02 2.147180473419E-12 5.891540054418E-12 8.209568317451E+02 -2.137858416371E-12 -5.879110645021E-12 -8.209568317451E+02 2.013564322396E-12 4.866113779124E-12 8.209568317451E+02

