#BIOSYM hessian 1
@Type: Hessian Update
@Units
 distance: 	A
 energy: 	Kcal/Mol
#header
@natom 4

#label
G1      N2      G3      N4

#element
Ga N  Ga N 

#matrix
12
 0.000000000000E+00
 0.000000000000E+00 0.000000000000E+00
 0.000000000000E+00 4.920417254498E-12 8.359220126486E+02
 0.000000000000E+00 0.000000000000E+00 0.000000000000E+00 0.000000000000E+00
 0.000000000000E+00 0.000000000000E+00 -4.589906729362E-12 0.000000000000E+00 0.000000000000E+00
 0.000000000000E+00 -4.920417254498E-12 -8.359220126486E+02 0.000000000000E+00 4.589906729362E-12 8.359220126486E+02
 0.000000000000E+00 0.000000000000E+00 0.000000000000E+00 0.000000000000E+00 0.000000000000E+00 0.000000000000E+00 0.000000000000E+00
 0.000000000000E+00 0.000000000000E+00 4.580596573724E-12 0.000000000000E+00 0.000000000000E+00 -4.580596573724E-12 0.000000000000E+00 0.000000000000E+00
 0.000000000000E+00 4.920417254498E-12 8.359220126486E+02 0.000000000000E+00 -4.589906729362E-12 -8.359220126486E+02 0.000000000000E+00 4.580596573724E-12 8.359220126486E+02
 0.000000000000E+00 0.000000000000E+00 0.000000000000E+00 0.000000000000E+00 0.000000000000E+00 0.000000000000E+00 0.000000000000E+00 0.000000000000E+00 0.000000000000E+00 0.000000000000E+00
 0.000000000000E+00 0.000000000000E+00 -4.915762176679E-12 0.000000000000E+00 0.000000000000E+00 4.915762176679E-12 0.000000000000E+00 0.000000000000E+00 -4.915762176679E-12 0.000000000000E+00 0.000000000000E+00
 0.000000000000E+00 -4.920417254498E-12 -8.359220126486E+02 0.000000000000E+00 4.589906729362E-12 8.359220126486E+02 0.000000000000E+00 -4.580596573724E-12 -8.359220126486E+02 0.000000000000E+00 4.915762176679E-12 8.359220126486E+02

