#BIOSYM hessian 1
@Type: Hessian Update
@Units
 distance: 	A
 energy: 	Kcal/Mol
#header
@natom 4

#label
G1      N2      G3      N4

#element
Ga N  Ga N 

#matrix
12
 0.000000000000E+00
 0.000000000000E+00 0.000000000000E+00
 -6.363393171094E-12 -7.594209229996E-12 8.348750861363E+02
 0.000000000000E+00 0.000000000000E+00 8.820370072777E-12 0.000000000000E+00
 0.000000000000E+00 0.000000000000E+00 9.014050146515E-12 0.000000000000E+00 0.000000000000E+00
 6.363393171094E-12 7.594209229996E-12 -8.348750861363E+02 -8.820370072777E-12 -9.014050146515E-12 8.348750861363E+02
 0.000000000000E+00 0.000000000000E+00 -8.810826022359E-12 0.000000000000E+00 0.000000000000E+00 8.810826022359E-12 0.000000000000E+00
 0.000000000000E+00 0.000000000000E+00 -8.993877543330E-12 0.000000000000E+00 0.000000000000E+00 8.993877543330E-12 0.000000000000E+00 0.000000000000E+00
 -6.363393171094E-12 -7.594209229996E-12 8.348750861363E+02 8.820370072777E-12 9.014050146515E-12 -8.348750861363E+02 -8.810826022359E-12 -8.993877543330E-12 8.348750861363E+02
 0.000000000000E+00 0.000000000000E+00 6.355688123967E-12 0.000000000000E+00 0.000000000000E+00 -6.355688123967E-12 0.000000000000E+00 0.000000000000E+00 6.355688123967E-12 0.000000000000E+00
 0.000000000000E+00 0.000000000000E+00 7.578691842930E-12 0.000000000000E+00 0.000000000000E+00 -7.578691842930E-12 0.000000000000E+00 0.000000000000E+00 7.578691842930E-12 0.000000000000E+00 0.000000000000E+00
 6.363393171094E-12 7.594209229996E-12 -8.348750861363E+02 -8.820370072777E-12 -9.014050146515E-12 8.348750861363E+02 8.810826022359E-12 8.993877543330E-12 -8.348750861363E+02 -6.355688123967E-12 -7.578691842930E-12 8.348750861363E+02

