#BIOSYM hessian 1
@Type: Hessian Update
@Units
 distance: 	A
 energy: 	Kcal/Mol
#header
@natom 4

#label
G1      N2      G3      N4

#element
Ga N  Ga N 

#matrix
12
 0.000000000000E+00
 0.000000000000E+00 0.000000000000E+00
 1.009324394150E-12 4.764638271384E-12 8.302552955192E+02
 0.000000000000E+00 0.000000000000E+00 -1.612158461814E-12 0.000000000000E+00
 0.000000000000E+00 0.000000000000E+00 -6.890710563927E-12 0.000000000000E+00 0.000000000000E+00
 -1.009324394150E-12 -4.764638271384E-12 -8.302552955192E+02 1.612158461814E-12 6.890710563927E-12 8.302552955192E+02
 0.000000000000E+00 0.000000000000E+00 1.607015124620E-12 0.000000000000E+00 0.000000000000E+00 -1.607015124620E-12 0.000000000000E+00
 0.000000000000E+00 0.000000000000E+00 6.876733463392E-12 0.000000000000E+00 0.000000000000E+00 -6.876733463392E-12 0.000000000000E+00 0.000000000000E+00
 1.009324394150E-12 4.764638271384E-12 8.302552955192E+02 -1.612158461814E-12 -6.890710563927E-12 -8.302552955192E+02 1.607015124620E-12 6.876733463392E-12 8.302552955192E+02
 0.000000000000E+00 0.000000000000E+00 -1.005866934864E-12 0.000000000000E+00 0.000000000000E+00 1.005866934864E-12 0.000000000000E+00 0.000000000000E+00 -1.005866934864E-12 0.000000000000E+00
 0.000000000000E+00 0.000000000000E+00 -4.752214182019E-12 0.000000000000E+00 0.000000000000E+00 4.752214182019E-12 0.000000000000E+00 0.000000000000E+00 -4.752214182019E-12 0.000000000000E+00 0.000000000000E+00
 -1.009324394150E-12 -4.764638271384E-12 -8.302552955192E+02 1.612158461814E-12 6.890710563927E-12 8.302552955192E+02 -1.607015124620E-12 -6.876733463392E-12 -8.302552955192E+02 1.005866934864E-12 4.752214182019E-12 8.302552955192E+02

