#BIOSYM hessian 1
@Type: Hessian Update
@Units
 distance: 	A
 energy: 	Kcal/Mol
#header
@natom 4

#label
G1      N2      G3      N4

#element
Ga N  Ga N 

#matrix
12
 0.000000000000E+00
 0.000000000000E+00 0.000000000000E+00
 0.000000000000E+00 6.293413718336E-12 8.231462648124E+02
 0.000000000000E+00 0.000000000000E+00 0.000000000000E+00 0.000000000000E+00
 0.000000000000E+00 0.000000000000E+00 -6.681704298194E-12 0.000000000000E+00 0.000000000000E+00
 0.000000000000E+00 -6.293413718336E-12 -8.231462648124E+02 0.000000000000E+00 6.681704298194E-12 8.231462648124E+02
 0.000000000000E+00 0.000000000000E+00 0.000000000000E+00 0.000000000000E+00 0.000000000000E+00 0.000000000000E+00 0.000000000000E+00
 0.000000000000E+00 0.000000000000E+00 6.653747376444E-12 0.000000000000E+00 0.000000000000E+00 -6.653747376444E-12 0.000000000000E+00 0.000000000000E+00
 0.000000000000E+00 6.293413718336E-12 8.231462648124E+02 0.000000000000E+00 -6.681704298194E-12 -8.231462648124E+02 0.000000000000E+00 6.653747376444E-12 8.231462648124E+02
 0.000000000000E+00 0.000000000000E+00 0.000000000000E+00 0.000000000000E+00 0.000000000000E+00 0.000000000000E+00 0.000000000000E+00 0.000000000000E+00 0.000000000000E+00 0.000000000000E+00
 0.000000000000E+00 0.000000000000E+00 -6.274775770503E-12 0.000000000000E+00 0.000000000000E+00 6.274775770503E-12 0.000000000000E+00 0.000000000000E+00 -6.274775770503E-12 0.000000000000E+00 0.000000000000E+00
 0.000000000000E+00 -6.293413718336E-12 -8.231462648124E+02 0.000000000000E+00 6.681704298194E-12 8.231462648124E+02 0.000000000000E+00 -6.653747376444E-12 -8.231462648124E+02 0.000000000000E+00 6.274775770503E-12 8.231462648124E+02

