#BIOSYM hessian 1
@Type: Hessian Update
@Units
 distance: 	A
 energy: 	Kcal/Mol
#header
@natom 4

#label
G1      N2      G3      N4

#element
Ga N  Ga N 

#matrix
12
 0.000000000000E+00
 0.000000000000E+00 0.000000000000E+00
 -2.033879360740E-12 -3.610097080428E-12 8.378756345675E+02
 0.000000000000E+00 0.000000000000E+00 2.094383781082E-12 0.000000000000E+00
 0.000000000000E+00 0.000000000000E+00 3.707834990212E-12 0.000000000000E+00 0.000000000000E+00
 2.033879360740E-12 3.610097080428E-12 -8.378756345675E+02 -2.094383781082E-12 -3.707834990212E-12 8.378756345675E+02
 0.000000000000E+00 0.000000000000E+00 -2.085075408722E-12 0.000000000000E+00 0.000000000000E+00 2.085075408722E-12 0.000000000000E+00
 0.000000000000E+00 0.000000000000E+00 -3.710937780998E-12 0.000000000000E+00 0.000000000000E+00 3.710937780998E-12 0.000000000000E+00 0.000000000000E+00
 -2.033879360740E-12 -3.610097080428E-12 8.378756345675E+02 2.094383781082E-12 3.707834990212E-12 -8.378756345675E+02 -2.085075408722E-12 -3.710937780998E-12 8.378756345675E+02
 0.000000000000E+00 0.000000000000E+00 2.041636337706E-12 0.000000000000E+00 0.000000000000E+00 -2.041636337706E-12 0.000000000000E+00 0.000000000000E+00 2.041636337706E-12 0.000000000000E+00
 0.000000000000E+00 0.000000000000E+00 3.611648475821E-12 0.000000000000E+00 0.000000000000E+00 -3.611648475821E-12 0.000000000000E+00 0.000000000000E+00 3.611648475821E-12 0.000000000000E+00 0.000000000000E+00
 2.033879360740E-12 3.610097080428E-12 -8.378756345675E+02 -2.094383781082E-12 -3.707834990212E-12 8.378756345675E+02 2.085075408722E-12 3.710937780998E-12 -8.378756345675E+02 -2.041636337706E-12 -3.611648475821E-12 8.378756345675E+02

