#BIOSYM hessian 1
@Type: Hessian Update
@Units
 distance: 	A
 energy: 	Kcal/Mol
#header
@natom 4

#label
G1      N2      G3      N4

#element
Ga N  Ga N 

#matrix
12
 0.000000000000E+00
 0.000000000000E+00 0.000000000000E+00
 3.563964281103E-12 9.318687070748E-12 8.369119271460E+02
 0.000000000000E+00 0.000000000000E+00 -3.411862736893E-12 0.000000000000E+00
 0.000000000000E+00 0.000000000000E+00 -1.060027806649E-11 0.000000000000E+00 0.000000000000E+00
 -3.563964281103E-12 -9.318687070748E-12 -8.369119271460E+02 3.411862736893E-12 1.060027806649E-11 8.369119271460E+02
 0.000000000000E+00 0.000000000000E+00 3.412024973728E-12 0.000000000000E+00 0.000000000000E+00 -3.412024973728E-12 0.000000000000E+00
 0.000000000000E+00 0.000000000000E+00 1.056304055572E-11 0.000000000000E+00 0.000000000000E+00 -1.056304055572E-11 0.000000000000E+00 0.000000000000E+00
 3.563964281103E-12 9.318687070748E-12 8.369119271460E+02 -3.411862736893E-12 -1.060027806649E-11 -8.369119271460E+02 3.412024973728E-12 1.056304055572E-11 8.369119271460E+02
 0.000000000000E+00 0.000000000000E+00 -3.556344515582E-12 0.000000000000E+00 0.000000000000E+00 3.556344515582E-12 0.000000000000E+00 0.000000000000E+00 -3.556344515582E-12 0.000000000000E+00
 0.000000000000E+00 0.000000000000E+00 -9.278346434078E-12 0.000000000000E+00 0.000000000000E+00 9.278346434078E-12 0.000000000000E+00 0.000000000000E+00 -9.278346434078E-12 0.000000000000E+00 0.000000000000E+00
 -3.563964281103E-12 -9.318687070748E-12 -8.369119271460E+02 3.411862736893E-12 1.060027806649E-11 8.369119271460E+02 -3.412024973728E-12 -1.056304055572E-11 -8.369119271460E+02 3.556344515582E-12 9.278346434078E-12 8.369119271460E+02

