#BIOSYM hessian 1
@Type: Hessian Update
@Units
 distance: 	A
 energy: 	Kcal/Mol
#header
@natom 4

#label
G1      N2      G3      N4

#element
Ga N  Ga N 

#matrix
12
 0.000000000000E+00
 0.000000000000E+00 0.000000000000E+00
 -3.837998513310E-12 -4.876890847906E-12 8.274359695495E+02
 0.000000000000E+00 0.000000000000E+00 1.279553933267E-12 0.000000000000E+00
 0.000000000000E+00 0.000000000000E+00 7.415482550016E-12 0.000000000000E+00 0.000000000000E+00
 3.837998513310E-12 4.876890847906E-12 -8.274359695495E+02 -1.279553933267E-12 -7.415482550016E-12 8.274359695495E+02
 0.000000000000E+00 0.000000000000E+00 -1.287251632090E-12 0.000000000000E+00 0.000000000000E+00 1.287251632090E-12 0.000000000000E+00
 0.000000000000E+00 0.000000000000E+00 -7.440325037621E-12 0.000000000000E+00 0.000000000000E+00 7.440325037621E-12 0.000000000000E+00 0.000000000000E+00
 -3.837998513310E-12 -4.876890847906E-12 8.274359695495E+02 1.279553933267E-12 7.415482550016E-12 -8.274359695495E+02 -1.287251632090E-12 -7.440325037621E-12 8.274359695495E+02
 0.000000000000E+00 0.000000000000E+00 3.836546100904E-12 0.000000000000E+00 0.000000000000E+00 -3.836546100904E-12 0.000000000000E+00 0.000000000000E+00 3.836546100904E-12 0.000000000000E+00
 0.000000000000E+00 0.000000000000E+00 4.887759436233E-12 0.000000000000E+00 0.000000000000E+00 -4.887759436233E-12 0.000000000000E+00 0.000000000000E+00 4.887759436233E-12 0.000000000000E+00 0.000000000000E+00
 3.837998513310E-12 4.876890847906E-12 -8.274359695495E+02 -1.279553933267E-12 -7.415482550016E-12 8.274359695495E+02 1.287251632090E-12 7.440325037621E-12 -8.274359695495E+02 -3.836546100904E-12 -4.887759436233E-12 8.274359695495E+02

