#BIOSYM hessian 1
@Type: Hessian Update
@Units
 distance: 	A
 energy: 	Kcal/Mol
#header
@natom 4

#label
G1      N2      G3      N4

#element
Ga N  Ga N 

#matrix
12
 0.000000000000E+00
 0.000000000000E+00 0.000000000000E+00
 3.161954581916E-12 6.440625409694E-12 8.291156163385E+02
 0.000000000000E+00 0.000000000000E+00 -3.694695800012E-12 0.000000000000E+00
 0.000000000000E+00 0.000000000000E+00 -6.848888721999E-12 0.000000000000E+00 0.000000000000E+00
 -3.161954581916E-12 -6.440625409694E-12 -8.291156163385E+02 3.694695800012E-12 6.848888721999E-12 8.291156163385E+02
 0.000000000000E+00 0.000000000000E+00 3.692622777464E-12 0.000000000000E+00 0.000000000000E+00 -3.692622777464E-12 0.000000000000E+00
 0.000000000000E+00 0.000000000000E+00 6.842679394055E-12 0.000000000000E+00 0.000000000000E+00 -6.842679394055E-12 0.000000000000E+00 0.000000000000E+00
 3.161954581916E-12 6.440625409694E-12 8.291156163385E+02 -3.694695800012E-12 -6.848888721999E-12 -8.291156163385E+02 3.692622777464E-12 6.842679394055E-12 8.291156163385E+02
 0.000000000000E+00 0.000000000000E+00 -3.153817904882E-12 0.000000000000E+00 0.000000000000E+00 3.153817904882E-12 0.000000000000E+00 0.000000000000E+00 -3.153817904882E-12 0.000000000000E+00
 0.000000000000E+00 0.000000000000E+00 -6.426654421821E-12 0.000000000000E+00 0.000000000000E+00 6.426654421821E-12 0.000000000000E+00 0.000000000000E+00 -6.426654421821E-12 0.000000000000E+00 0.000000000000E+00
 -3.161954581916E-12 -6.440625409694E-12 -8.291156163385E+02 3.694695800012E-12 6.848888721999E-12 8.291156163385E+02 -3.692622777464E-12 -6.842679394055E-12 -8.291156163385E+02 3.153817904882E-12 6.426654421821E-12 8.291156163385E+02

