#BIOSYM hessian 1
@Type: Hessian Update
@Units
 distance: 	A
 energy: 	Kcal/Mol
#header
@natom 4

#label
G1      N2      G3      N4

#element
Ga N  Ga N 

#matrix
12
 0.000000000000E+00
 0.000000000000E+00 0.000000000000E+00
 0.000000000000E+00 -5.859875677028E-12 8.339196776500E+02
 0.000000000000E+00 0.000000000000E+00 -1.526081535670E-12 0.000000000000E+00
 0.000000000000E+00 0.000000000000E+00 5.315167953872E-12 0.000000000000E+00 0.000000000000E+00
 0.000000000000E+00 5.859875677028E-12 -8.339196776500E+02 1.526081535670E-12 -5.315167953872E-12 8.339196776500E+02
 0.000000000000E+00 0.000000000000E+00 1.554110318064E-12 0.000000000000E+00 0.000000000000E+00 -1.554110318064E-12 0.000000000000E+00
 0.000000000000E+00 0.000000000000E+00 -5.288786098334E-12 0.000000000000E+00 0.000000000000E+00 5.288786098334E-12 0.000000000000E+00 0.000000000000E+00
 0.000000000000E+00 -5.859875677028E-12 8.339196776500E+02 -1.526081535670E-12 5.315167953872E-12 -8.339196776500E+02 1.554110318064E-12 -5.288786098334E-12 8.339196776500E+02
 0.000000000000E+00 0.000000000000E+00 0.000000000000E+00 0.000000000000E+00 0.000000000000E+00 0.000000000000E+00 0.000000000000E+00 0.000000000000E+00 0.000000000000E+00 0.000000000000E+00
 0.000000000000E+00 0.000000000000E+00 5.835045695345E-12 0.000000000000E+00 0.000000000000E+00 -5.835045695345E-12 0.000000000000E+00 0.000000000000E+00 5.835045695345E-12 0.000000000000E+00 0.000000000000E+00
 0.000000000000E+00 5.859875677028E-12 -8.339196776500E+02 1.526081535670E-12 -5.315167953872E-12 8.339196776500E+02 -1.554110318064E-12 5.288786098334E-12 -8.339196776500E+02 0.000000000000E+00 -5.835045695345E-12 8.339196776500E+02

