#BIOSYM hessian 1
@Type: Hessian Update
@Units
 distance: 	A
 energy: 	Kcal/Mol
#header
@natom 4

#label
G1      N2      G3      N4

#element
Ga N  Ga N 

#matrix
12
 0.000000000000E+00
 0.000000000000E+00 0.000000000000E+00
 3.132580015943E-12 6.468813917200E-12 8.291788164920E+02
 0.000000000000E+00 0.000000000000E+00 -3.738303208805E-12 0.000000000000E+00
 0.000000000000E+00 0.000000000000E+00 -6.849149748664E-12 0.000000000000E+00 0.000000000000E+00
 -3.132580015943E-12 -6.468813917200E-12 -8.291788164920E+02 3.738303208805E-12 6.849149748664E-12 8.291788164920E+02
 0.000000000000E+00 0.000000000000E+00 3.730021350910E-12 0.000000000000E+00 0.000000000000E+00 -3.730021350910E-12 0.000000000000E+00
 0.000000000000E+00 0.000000000000E+00 6.830521054878E-12 0.000000000000E+00 0.000000000000E+00 -6.830521054878E-12 0.000000000000E+00 0.000000000000E+00
 3.132580015943E-12 6.468813917200E-12 8.291788164920E+02 -3.738303208805E-12 -6.849149748664E-12 -8.291788164920E+02 3.730021350910E-12 6.830521054878E-12 8.291788164920E+02
 0.000000000000E+00 0.000000000000E+00 -3.116681524712E-12 0.000000000000E+00 0.000000000000E+00 3.116681524712E-12 0.000000000000E+00 0.000000000000E+00 -3.116681524712E-12 0.000000000000E+00
 0.000000000000E+00 0.000000000000E+00 -6.445528049967E-12 0.000000000000E+00 0.000000000000E+00 6.445528049967E-12 0.000000000000E+00 0.000000000000E+00 -6.445528049967E-12 0.000000000000E+00 0.000000000000E+00
 -3.132580015943E-12 -6.468813917200E-12 -8.291788164920E+02 3.738303208805E-12 6.849149748664E-12 8.291788164920E+02 -3.730021350910E-12 -6.830521054878E-12 -8.291788164920E+02 3.116681524712E-12 6.445528049967E-12 8.291788164920E+02

