#BIOSYM hessian 1
@Type: Hessian Update
@Units
 distance: 	A
 energy: 	Kcal/Mol
#header
@natom 4

#label
G1      N2      G3      N4

#element
Ga N  Ga N 

#matrix
12
 0.000000000000E+00
 0.000000000000E+00 0.000000000000E+00
 1.020195442609E-12 4.769297167161E-12 8.302552475648E+02
 0.000000000000E+00 0.000000000000E+00 -1.595075293145E-12 0.000000000000E+00
 0.000000000000E+00 0.000000000000E+00 -6.915558542940E-12 0.000000000000E+00 0.000000000000E+00
 -1.020195442609E-12 -4.769297167161E-12 -8.302552475648E+02 1.595075293145E-12 6.915558542940E-12 8.302552475648E+02
 0.000000000000E+00 0.000000000000E+00 1.588378944357E-12 0.000000000000E+00 0.000000000000E+00 -1.588378944357E-12 0.000000000000E+00
 0.000000000000E+00 0.000000000000E+00 6.907793487311E-12 0.000000000000E+00 0.000000000000E+00 -6.907793487311E-12 0.000000000000E+00 0.000000000000E+00
 1.020195442609E-12 4.769297167161E-12 8.302552475648E+02 -1.595075293145E-12 -6.915558542940E-12 -8.302552475648E+02 1.588378944357E-12 6.907793487311E-12 8.302552475648E+02
 0.000000000000E+00 0.000000000000E+00 -1.012078949700E-12 0.000000000000E+00 0.000000000000E+00 1.012078949700E-12 0.000000000000E+00 0.000000000000E+00 -1.012078949700E-12 0.000000000000E+00
 0.000000000000E+00 0.000000000000E+00 -4.746002000275E-12 0.000000000000E+00 0.000000000000E+00 4.746002000275E-12 0.000000000000E+00 0.000000000000E+00 -4.746002000275E-12 0.000000000000E+00 0.000000000000E+00
 -1.020195442609E-12 -4.769297167161E-12 -8.302552475648E+02 1.595075293145E-12 6.915558542940E-12 8.302552475648E+02 -1.588378944357E-12 -6.907793487311E-12 -8.302552475648E+02 1.012078949700E-12 4.746002000275E-12 8.302552475648E+02

