 Job started on host vgtPC
 at Sun Apr 16 18:46:57 2023

 +-------------------------------------------------+
 |                                                 |
 |      CCC   AA    SSS  TTTTT  EEEEE  PPPP        |
 |     C     A  A  S       T    E      P   P       |
 |     C     AAAA   SS     T    EEE    PPPP        |
 |     C     A  A     S    T    E      P           |
 |      CCC  A  A  SSS     T    EEEEE  P           |
 |                                                 |
 +-------------------------------------------------+
 |                                                 |
 | Materials Studio CASTEP version 2020            |
 | Ab Initio Total Energy Program                  |
 |                                                 |
 | Authors:                                        |
 | M. Segall, M. Probert, C. Pickard, P. Hasnip,   |
 | S. Clark, K. Refson, J. R. Yates, M. Payne      |
 |                                                 |
 | Contributors:                                   |
 | P. Lindan, P. Haynes, J. White, V. Milman,      |
 | N. Govind, M. Gibson, P. Tulip, V. Cocula,      |
 | B. Montanari, D. Quigley, M. Glover,            |
 | L. Bernasconi, A. Perlov, M. Plummer,           |
 | E. McNellis, J. Meyer, J. Gale, D. Jochym       |
 | J. Aarons, B. Walker, R. Gillen, D. Jones       |
 | T. Green, I. J. Bush, C. J. Armstrong,          |
 | E. J. Higgins, E. L. Brown, M. S. McFly,        |
 | J. Wilkins, B-C. Shih, P. J. P. Byrne,          |
 | R. J. Maurer, J. C. Womack, J. Dziedzic,        |
 | A. Bartok-Partay                                |
 |                                                 |
 | Copyright (c) 2000 - 2019                       |
 |                                                 |
 | Please cite                                     |
 |                                                 |
 |     "First principles methods using CASTEP"     |
 |                                                 |
 |         Zeitschrift fuer Kristallographie       |
 |           220(5-6) pp. 567-570 (2005)           |
 |                                                 |
 | S. J. Clark, M. D. Segall, C. J. Pickard,       |
 | P. J. Hasnip, M. J. Probert, K. Refson,         |
 | M. C. Payne                                     |
 |                                                 |
 |       in all publications arising from          |
 |              your use of CASTEP                 |
 |                                                 |
 +-------------------------------------------------+
 |                                                 |
 |              http://www.castep.org              |
 |                                                 |
 +-------------------------------------------------+
 
 
 This version was compiled for x86_64-windows-msvc2015 on Oct 17 2019
 Code version:    8433
 Intel(R) Math Kernel Library Version 2019.0.4 
 Fundamental constants values: CODATA 2014
 
License checkout of MS_castep successful
 
 
 Atomic calculation performed for Si: 1s2 2s2 2p6 3s2 3p2
 
 Converged in 54 iterations to an ae energy of -7886.857 eV
 
 Identity difference: 1.35E-04
 
   ============================================================                
   | Pseudopotential Report - Date of generation 16-04-2023   |                
   ------------------------------------------------------------                
   | Element: Si Ionic charge:  4.00 Level of theory: PBE     |                
   | Atomic Solver: Koelling-Harmon                           |                
   |                                                          |                
   |               Reference Electronic Structure             |                
   |         Orbital         Occupation         Energy        |                
   |            3s              2.000           -0.397        |                
   |            3p              2.000           -0.150        |                
   |                                                          |                
   |                 Pseudopotential Definition               |                
   |        Beta     l      e      Rc     scheme   norm       |                
   |          1      0   -0.397   1.797     qc      0         |                
   |          2      0    0.250   1.797     qc      0         |                
   |          3      1   -0.150   1.797     qc      0         |                
   |          4      1    0.250   1.797     qc      0         |                
   |          5      2    0.000   1.797     qc      0         |                
   |          6      2    0.250   1.797     qc      0         |                
   |         loc     3    0.000   1.797     pn      0         |                
   |                                                          |                
   | Augmentation charge Rinner = 1.255                       |                
   | Partial core correction Rc = 1.255                       |                
   ------------------------------------------------------------                
   | "3|1.8|3.6|5|7|30UU:31UU:32UU[]"                         |                
   ------------------------------------------------------------                
   |      Author: Chris J. Pickard, Cambridge University      |                
   ============================================================                
 
 Doing a self consistent calculation for the test configuration
 
 Atomic calculation performed for Si: 1s2 2s2 2p6 3s2 3p2
 
 Converged in 54 iterations to an ae energy of -7886.857 eV
 
 ---------------------------------------
 AE eigenvalue nl 10 =      -65.63192903
 AE eigenvalue nl 20 =       -5.12654326
 AE eigenvalue nl 21 =       -3.51173659
 AE eigenvalue nl 30 =       -0.39736430
 AE eigenvalue nl 31 =       -0.14998156
 ---------------------------------------
 PS eigenvalue nl 30 =       -0.39734684
 PS eigenvalue nl 31 =       -0.14996575
 ---------------------------------------
 Maximum eigenvalue error:   1.75E-05
 
 Derived cutoff energies: C=   1 M=   4 F=   4 E=   6
 
 Checking for ghost states up to   1.41091 Ha
 
 No Ghost States Identified
 
 ***************************************
 
 Pseudo atomic calculation performed for Si 3s2 3p2
 
 Converged in 11 iterations to a total energy of -165.0669 eV
 Calculation parallelised over 12 processes.
 Data is distributed by G-vector(12-way)

 ************************************ Title ************************************
 CASTEP calculation from Materials Studio

 ***************************** General Parameters ******************************
  
 output verbosity                               : normal  (1)
 write checkpoint data to                       : 100Len_GGA-PBE.check
 type of calculation                            : geometry optimization
 stress calculation                             : on
 density difference calculation                 : off
 electron localisation func (ELF) calculation   : off
 Hirshfeld analysis                             : off
 molecular orbital projected DOS                : off
 deltaSCF calculation                           : off
 unlimited duration calculation
 timing information                             : on
 memory usage estimate                          : on
 write extra output files                       : on
 write final potential to formatted file        : off
 write final density to formatted file          : off
 write BibTeX reference list                    : on
 write OTFG pseudopotential files               : on
 write electrostatic potential file             : on
 write bands file                               : on
 checkpoint writing                             : both castep_bin and check files
  
 output         length unit                     : A
 output           mass unit                     : amu
 output           time unit                     : ps
 output         charge unit                     : e
 output           spin unit                     : hbar/2
 output         energy unit                     : eV
 output          force unit                     : eV/A
 output       velocity unit                     : A/ps
 output       pressure unit                     : GPa
 output     inv_length unit                     : 1/A
 output      frequency unit                     : cm-1
 output force constant unit                     : eV/A**2
 output         volume unit                     : A**3
 output   IR intensity unit                     : (D/A)**2/amu
 output         dipole unit                     : D
 output         efield unit                     : eV/A/e
 output        entropy unit                     : J/mol/K
 output    efield chi2 unit                     : pm/V
  
 wavefunctions paging                           : none
 random number generator seed                   : randomised (184657864)
 data distribution                              : optimal for this architecture
 optimization strategy                          : maximize speed(+++)

 *********************** Exchange-Correlation Parameters ***********************
  
 using functional                               : Perdew Burke Ernzerhof
 relativistic treatment                         : Koelling-Harmon
 DFT+D: Semi-empirical dispersion correction    : off

 ************************* Pseudopotential Parameters **************************
  
 pseudopotential representation                 : reciprocal space
 <beta|phi> representation                      : reciprocal space
 spin-orbit coupling                            : off

 **************************** Basis Set Parameters *****************************
  
 plane wave basis set cut-off                   :   400.0000   eV
 size of standard grid                          :     1.5000
 size of   fine   gmax                          :    15.3695   1/A
 largest prime factor in FFT                    :          5
 finite basis set correction                    : automatic
 number of sample energies                      :          3
           sample  spacing                      :     5.0000   eV

 **************************** Electronic Parameters ****************************
  
 number of  electrons                           :  32.00    
 net charge of system                           :  0.000    
 treating system as non-spin-polarized
 number of bands                                :         16

 ********************* Electronic Minimization Parameters **********************
  
 Method: Treating system as non-metallic,
         and number of  SD  steps               :          1
         and number of  CG  steps               :          4
  
 total energy / atom convergence tol.           : 0.2000E-05   eV
 eigen-energy convergence tolerance             : 0.1000E-05   eV
 max force / atom convergence tol.              : ignored
 convergence tolerance window                   :          3   cycles
 max. number of SCF cycles                      :        100
 periodic dipole correction                     : NONE

 ************************** Density Mixing Parameters **************************
  
 density-mixing scheme                          : Pulay
 max. length of mixing history                  :         20
 charge density mixing amplitude                : 0.5000    
 cut-off energy for mixing                      :  400.0       eV
 charge density mixing g-vector                 :  1.500       1/A

 ********************** Geometry Optimization Parameters ***********************
  
 optimization method                            : LBFGS
 max. no. of LBFGS updates                      : unbounded
 preconditioned LBFGS is activated
 preconditioner type                            : EXP
     stabilization constant                     :     0.1000
     parameter A                                :     3.0000
     nearest neighbor distance                  : automatic
     cut-off distance                           : automatic
     parameter mu                               : automatic
 variable cell method                           : fixed basis quality
 max. number of steps                           :        200
 estimated bulk modulus                         :  200.0       GPa
 estimated <frequency>                          :  1668.       cm-1
 geom line minimiser                            : on
 with line minimiser tolerance                  :     0.4000
 total energy convergence tolerance             : 0.2000E-04   eV/atom
        max ionic |force| tolerance             : 0.5000E-01   eV/A
 max ionic |displacement| tolerance             : 0.2000E-02   A
   max |stress component| tolerance             : 0.1000       GPa
 convergence tolerance window                   :          2   steps
 backup results every                           :          5   steps
 write geom trajectory file                     : on

 *******************************************************************************
  
 
                           -------------------------------
                                      Unit Cell
                           -------------------------------
        Real Lattice(A)                      Reciprocal Lattice(1/A)
     6.3560601     0.0000000     0.0000000        0.988534597   0.000000000   0.000000000
     0.0000000     6.3560601     0.0000000        0.000000000   0.988534597   0.000000000
     0.0000000     0.0000000     6.3560601        0.000000000   0.000000000   0.988534597
 
                       Lattice parameters(A)       Cell Angles
                    a =      6.356060          alpha =   90.000000
                    b =      6.356060          beta  =   90.000000
                    c =      6.356060          gamma =   90.000000
 
                       Current cell volume =           256.781649       A**3
                                   density =             0.875000   AMU/A**3
                                           =             1.452972     g/cm^3
 
                           -------------------------------
                                     Cell Contents
                           -------------------------------
                         Total number of ions in cell =    8
                      Total number of species in cell =    1
                        Max number of any one species =    8
 
            xxxxxxxxxxxxxxxxxxxxxxxxxxxxxxxxxxxxxxxxxxxxxxxxxxxxxxxxxxxx
            x  Element    Atom        Fractional coordinates of atoms  x
            x            Number           u          v          w      x
            x----------------------------------------------------------x
            x  Si           1         0.000000   0.000000   0.000000   x 
            x  Si           2         0.000000   0.500000   0.500000   x 
            x  Si           3         0.500000   0.000000   0.500000   x 
            x  Si           4         0.500000   0.500000   0.000000   x 
            x  Si           5         0.750000   0.250000   0.750000   x 
            x  Si           6         0.250000   0.250000   0.250000   x 
            x  Si           7         0.250000   0.750000   0.750000   x 
            x  Si           8         0.750000   0.750000   0.250000   x 
            xxxxxxxxxxxxxxxxxxxxxxxxxxxxxxxxxxxxxxxxxxxxxxxxxxxxxxxxxxxx
 
 
                         No user defined ionic velocities
 
                           -------------------------------
                                   Details of Species
                           -------------------------------
 
                               Mass of species in AMU
                                    Si   28.0849991
 
                          Electric Quadrupole Moment (Barn)
                                    Si    1.0000000 No Isotope Defined
 
                          Files used for pseudopotentials:
                                    Si 3|1.8|3.6|5|7|30UU:31UU:32UU[]
 
                           -------------------------------
                              k-Points For BZ Sampling
                           -------------------------------
                       MP grid size for SCF calculation is  2  2  2
                            with an offset of   0.000  0.000  0.000
                       Number of kpoints used =             1
 
                           -------------------------------
                               Symmetry and Constraints
                           -------------------------------
 
                      Cell is a supercell containing 4 primitive cells
                      Maximum deviation from symmetry =  0.00000         ANG
 
                      Number of symmetry operations   =         192
         There are no ionic constraints specified or generated for this cell
                      Point group of crystal =    32: Oh, m-3m, 4/m -3 2/m
                      Space group of crystal =   227: Fd-3m, F 4d 2 3 -1d
 
             Set iprint > 1 for details on symmetry rotations/translations
 
                         Centre of mass is NOT constrained
 
                         Number of cell constraints= 5
                         Cell constraints are:  1 1 1 0 0 0
 
                         External pressure/stress (GPa)
                          0.00000   0.00000   0.00000
                                    0.00000   0.00000
                                              0.00000
  
+---------------- MEMORY AND SCRATCH DISK ESTIMATES PER PROCESS --------------+
|                                                     Memory          Disk    |
| Baseline code, static data and system overhead        0.0 MB         0.0 MB |
| BLAS internal memory storage                          0.0 MB         0.0 MB |
| Model and support data                               92.0 MB         0.0 MB |
| Electronic energy minimisation requirements           1.9 MB         0.0 MB |
| Force calculation requirements                        0.6 MB         0.0 MB |
| Stress calculation requirements                       0.6 MB         0.0 MB |
|                                               ----------------------------- |
| Approx. total storage required per process           94.0 MB         0.0 MB |
|                                                                             |
| Requirements will fluctuate during execution and may exceed these estimates |
+-----------------------------------------------------------------------------+
Calculating finite basis set correction with  3 cut-off energies.
Calculating total energy with cut-off of  390.000 eV.
------------------------------------------------------------------------ <-- SCF
SCF loop      Energy                           Energy gain       Timer   <-- SCF
                                               per atom          (sec)   <-- SCF
------------------------------------------------------------------------ <-- SCF
Initial  -6.16885468E+001                                         13.05  <-- SCF
      1  -1.22557097E+003                    1.45485303E+002      13.17  <-- SCF
      2  -1.34816486E+003                    1.53242358E+001      13.31  <-- SCF
      3  -1.35685914E+003                    1.08678543E+000      13.52  <-- SCF
      4  -1.35704899E+003                    2.37314276E-002      13.70  <-- SCF
      5  -1.35700261E+003                   -5.79753595E-003      13.81  <-- SCF
      6  -1.35701653E+003                    1.73935261E-003      13.92  <-- SCF
      7  -1.35702057E+003                    5.05265581E-004      14.02  <-- SCF
      8  -1.35702076E+003                    2.46129403E-005      14.08  <-- SCF
      9  -1.35702077E+003                    7.77502763E-007      14.14  <-- SCF
     10  -1.35702077E+003                    2.81463299E-007      14.22  <-- SCF
------------------------------------------------------------------------ <-- SCF
 
Final energy =  -1357.020772638     eV
(energy not corrected for finite basis set)
 
Calculating total energy with cut-off of  395.000 eV.
------------------------------------------------------------------------ <-- SCF
SCF loop      Energy                           Energy gain       Timer   <-- SCF
                                               per atom          (sec)   <-- SCF
------------------------------------------------------------------------ <-- SCF
Initial  -1.35702077E+003                                         14.28  <-- SCF
      1  -1.35702081E+003                    4.71964423E-006      14.33  <-- SCF
      2  -1.35702081E+003                    8.95368025E-008      14.38  <-- SCF
      3  -1.35702081E+003                    5.85735344E-008      14.42  <-- SCF
      4  -1.35702081E+003                    4.14256711E-008      14.48  <-- SCF
------------------------------------------------------------------------ <-- SCF
 
Final energy =  -1357.020812242     eV
(energy not corrected for finite basis set)
 
Calculating total energy with cut-off of  400.000 eV.
------------------------------------------------------------------------ <-- SCF
SCF loop      Energy                           Energy gain       Timer   <-- SCF
                                               per atom          (sec)   <-- SCF
------------------------------------------------------------------------ <-- SCF
Initial  -1.35702081E+003                                         14.56  <-- SCF
      1  -1.35702086E+003                    5.38085448E-006      14.61  <-- SCF
      2  -1.35702086E+003                    2.39621905E-008      14.67  <-- SCF
      3  -1.35702086E+003                    1.85147649E-008      14.73  <-- SCF
      4  -1.35702086E+003                    1.46216440E-008      14.81  <-- SCF
------------------------------------------------------------------------ <-- SCF
 
Final energy =  -1357.020855966     eV
(energy not corrected for finite basis set)
 
 For future reference: finite basis dEtot/dlog(Ecut) =      -0.002927eV
 Total energy corrected for finite basis set =   -1357.020850 eV
 
+---------------- MEMORY AND SCRATCH DISK ESTIMATES PER PROCESS --------------+
|                                                     Memory          Disk    |
| Model and support data                              102.9 MB         0.0 MB |
| Electronic energy minimisation requirements           1.9 MB         0.0 MB |
| Geometry minimisation requirements                    2.3 MB         0.0 MB |
|                                               ----------------------------- |
| Approx. total storage required per process          107.1 MB         0.0 MB |
|                                                                             |
| Requirements will fluctuate during execution and may exceed these estimates |
+-----------------------------------------------------------------------------+
 
 
 *********** Symmetrised Stress Tensor ***********
 *                                               *
 *          Cartesian components (GPa)           *
 * --------------------------------------------- *
 *             x             y             z     *
 *                                               *
 *  x     13.817517     -0.000000      0.000000  *
 *  y     -0.000000     13.817517      0.000000  *
 *  z      0.000000      0.000000     13.817517  *
 *                                               *
 *  Pressure:  -13.8175                          *
 *                                               *
 *************************************************
 EXP precond LBFGS => estimated nearest neighbor distance :  2.752       A
 EXP precond LBFGS => estimated cutoff distance :  5.505       A
 EXP precond LBFGS => estimated parameter mu :  1.000       eV/A**2
 LBFGS: finished iteration     0 with enthalpy= -1.35702085E+003 eV
  
 +-----------+-----------------+-----------------+------------+-----+ <-- LBFGS
 | Parameter |      value      |    tolerance    |    units   | OK? | <-- LBFGS
 +-----------+-----------------+-----------------+------------+-----+ <-- LBFGS
 |  dE/ion   |   0.000000E+000 |   2.000000E-005 |         eV | No  | <-- LBFGS
 |   Smax    |   1.381752E+001 |   1.000000E-001 |        GPa | No  | <-- LBFGS
 +-----------+-----------------+-----------------+------------+-----+ <-- LBFGS
  

================================================================================
 Starting LBFGS iteration          1 ...
================================================================================
  
 +------------+-------------+-------------+-----------------+ <-- min LBFGS
 |    Step    |   lambda    |   F.delta'  |    enthalpy     | <-- min LBFGS
 +------------+-------------+-------------+-----------------+ <-- min LBFGS
 |  previous  |    0.000000 |    1.409592 |    -1357.020850 | <-- min LBFGS
 +------------+-------------+-------------+-----------------+ <-- min LBFGS
  

--------------------------------------------------------------------------------
 LBFGS: starting iteration         1 with trial guess (lambda=  1.000000)
--------------------------------------------------------------------------------
 
                           -------------------------------
                                      Unit Cell
                           -------------------------------
        Real Lattice(A)              Reciprocal Lattice(1/A)
     6.2096851     0.0000000    -0.0000000        1.011836374  -0.000000000   0.000000000
     0.0000000     6.2096851     0.0000000       -0.000000000   1.011836374  -0.000000000
    -0.0000000     0.0000000     6.2096851        0.000000000  -0.000000000   1.011836374
 
                       Lattice parameters(A)       Cell Angles
                    a =      6.209685          alpha =   90.000000
                    b =      6.209685          beta  =   90.000000
                    c =      6.209685          gamma =   90.000000
 
                Current cell volume =           239.446637 A**3
                            density =             0.938330 amu/A**3
                                    =             1.558134 g/cm^3
 
------------------------------------------------------------------------ <-- SCF
SCF loop      Energy                           Energy gain       Timer   <-- SCF
                                               per atom          (sec)   <-- SCF
------------------------------------------------------------------------ <-- SCF
Initial  -1.35800440E+003                                         15.91  <-- SCF
      1  -1.35863949E+003                    7.93866624E-002      15.95  <-- SCF
      2  -1.35864852E+003                    1.12837643E-003      16.06  <-- SCF
      3  -1.35856216E+003                   -1.07954069E-002      16.14  <-- SCF
      4  -1.35852245E+003                   -4.96369218E-003      16.19  <-- SCF
      5  -1.35852463E+003                    2.72388902E-004      16.27  <-- SCF
      6  -1.35852472E+003                    1.18733524E-005      16.33  <-- SCF
      7  -1.35852474E+003                    1.97363588E-006      16.39  <-- SCF
      8  -1.35852474E+003                    1.50642284E-007      16.45  <-- SCF
      9  -1.35852474E+003                    5.79693686E-008      16.53  <-- SCF
------------------------------------------------------------------------ <-- SCF
 
Final energy =  -1358.524739719     eV
(energy not corrected for finite basis set)
 
 
 *********** Symmetrised Stress Tensor ***********
 *                                               *
 *          Cartesian components (GPa)           *
 * --------------------------------------------- *
 *             x             y             z     *
 *                                               *
 *  x     13.907423      0.000000      0.000000  *
 *  y      0.000000     13.907423      0.000000  *
 *  z      0.000000      0.000000     13.907423  *
 *                                               *
 *  Pressure:  -13.9074                          *
 *                                               *
 *************************************************
  
 +------------+-------------+-------------+-----------------+ <-- min LBFGS
 |    Step    |   lambda    |   F.delta'  |    enthalpy     | <-- min LBFGS
 +------------+-------------+-------------+-----------------+ <-- min LBFGS
 |  previous  |    0.000000 |    1.409592 |    -1357.020850 | <-- min LBFGS
 | trial step |    1.000000 |    1.354171 |    -1358.524741 | <-- min LBFGS
 +------------+-------------+-------------+-----------------+ <-- min LBFGS
  

--------------------------------------------------------------------------------
 LBFGS: improving iteration         1 with line minimization (lambda=  1.807609)
--------------------------------------------------------------------------------
 
                           -------------------------------
                                      Unit Cell
                           -------------------------------
        Real Lattice(A)              Reciprocal Lattice(1/A)
     6.0914715     0.0000000    -0.0000000        1.031472497  -0.000000000   0.000000000
     0.0000000     6.0914715     0.0000000       -0.000000000   1.031472497  -0.000000000
    -0.0000000     0.0000000     6.0914715        0.000000000  -0.000000000   1.031472497
 
                       Lattice parameters(A)       Cell Angles
                    a =      6.091471          alpha =   90.000000
                    b =      6.091471          beta  =   90.000000
                    c =      6.091471          gamma =   90.000000
 
                Current cell volume =           226.030293 A**3
                            density =             0.994026 amu/A**3
                                    =             1.650619 g/cm^3
 
------------------------------------------------------------------------ <-- SCF
SCF loop      Energy                           Energy gain       Timer   <-- SCF
                                               per atom          (sec)   <-- SCF
------------------------------------------------------------------------ <-- SCF
Initial  -1.35936546E+003                                         17.06  <-- SCF
      1  -1.35978430E+003                    5.23555851E-002      17.11  <-- SCF
      2  -1.35978987E+003                    6.96371727E-004      17.23  <-- SCF
      3  -1.35973343E+003                   -7.05572728E-003      17.31  <-- SCF
      4  -1.35970835E+003                   -3.13424799E-003      17.39  <-- SCF
      5  -1.35970962E+003                    1.58246315E-004      17.47  <-- SCF
      6  -1.35970966E+003                    5.44689871E-006      17.52  <-- SCF
      7  -1.35970967E+003                    1.15556224E-006      17.58  <-- SCF
      8  -1.35970967E+003                    8.64878896E-008      17.62  <-- SCF
------------------------------------------------------------------------ <-- SCF
 
Final energy =  -1359.709671595     eV
(energy not corrected for finite basis set)
 
 
 *********** Symmetrised Stress Tensor ***********
 *                                               *
 *          Cartesian components (GPa)           *
 * --------------------------------------------- *
 *             x             y             z     *
 *                                               *
 *  x     13.595038     -0.000000      0.000000  *
 *  y     -0.000000     13.595038     -0.000000  *
 *  z      0.000000     -0.000000     13.595038  *
 *                                               *
 *  Pressure:  -13.5950                          *
 *                                               *
 *************************************************
  
 +------------+-------------+-------------+-----------------+ <-- min LBFGS
 |    Step    |   lambda    |   F.delta'  |    enthalpy     | <-- min LBFGS
 +------------+-------------+-------------+-----------------+ <-- min LBFGS
 |  previous  |    0.000000 |    1.409592 |    -1357.020850 | <-- min LBFGS
 | trial step |    1.000000 |    1.354171 |    -1358.524741 | <-- min LBFGS
 |  line step |    1.807609 |    1.273833 |    -1359.709677 | <-- min LBFGS
 +------------+-------------+-------------+-----------------+ <-- min LBFGS
  

--------------------------------------------------------------------------------
 LBFGS: improving iteration         1 with quad minimization (lambda=  3.615217)
--------------------------------------------------------------------------------
 
                           -------------------------------
                                      Unit Cell
                           -------------------------------
        Real Lattice(A)              Reciprocal Lattice(1/A)
     5.8268829     0.0000000    -0.0000000        1.078309867  -0.000000000   0.000000000
     0.0000000     5.8268829     0.0000000       -0.000000000   1.078309867  -0.000000000
    -0.0000000     0.0000000     5.8268829        0.000000000  -0.000000000   1.078309867
 
                       Lattice parameters(A)       Cell Angles
                    a =      5.826883          alpha =   90.000000
                    b =      5.826883          beta  =   90.000000
                    c =      5.826883          gamma =   90.000000
 
                Current cell volume =           197.837615 A**3
                            density =             1.135679 amu/A**3
                                    =             1.885839 g/cm^3
 
------------------------------------------------------------------------ <-- SCF
SCF loop      Energy                           Energy gain       Timer   <-- SCF
                                               per atom          (sec)   <-- SCF
------------------------------------------------------------------------ <-- SCF
Initial  -1.36010624E+003                                         18.66  <-- SCF
      1  -1.36228413E+003                    2.72237190E-001      18.70  <-- SCF
      2  -1.36230631E+003                    2.77183103E-003      18.80  <-- SCF
      3  -1.36202912E+003                   -3.46486619E-002      18.88  <-- SCF
      4  -1.36190444E+003                   -1.55847166E-002      18.94  <-- SCF
      5  -1.36190998E+003                    6.92432337E-004      19.02  <-- SCF
      6  -1.36191010E+003                    1.49796873E-005      19.09  <-- SCF
      7  -1.36191012E+003                    2.72006751E-006      19.14  <-- SCF
      8  -1.36191012E+003                    3.70218514E-007      19.19  <-- SCF
      9  -1.36191013E+003                    1.58092994E-007      19.23  <-- SCF
------------------------------------------------------------------------ <-- SCF
 
Final energy =  -1361.910125590     eV
(energy not corrected for finite basis set)
 
 
 *********** Symmetrised Stress Tensor ***********
 *                                               *
 *          Cartesian components (GPa)           *
 * --------------------------------------------- *
 *             x             y             z     *
 *                                               *
 *  x     10.821180      0.000000     -0.000000  *
 *  y      0.000000     10.821180     -0.000000  *
 *  z     -0.000000     -0.000000     10.821180  *
 *                                               *
 *  Pressure:  -10.8212                          *
 *                                               *
 *************************************************
  
 +------------+-------------+-------------+-----------------+ <-- min LBFGS
 |    Step    |   lambda    |   F.delta'  |    enthalpy     | <-- min LBFGS
 +------------+-------------+-------------+-----------------+ <-- min LBFGS
 |  previous  |    0.000000 |    1.409592 |    -1357.020850 | <-- min LBFGS
 | trial step |    1.000000 |    1.354171 |    -1358.524741 | <-- min LBFGS
 |  line step |    1.807609 |    1.273833 |    -1359.709677 | <-- min LBFGS
 |  quad step |    3.615217 |    0.927758 |    -1361.910124 | <-- min LBFGS
 +------------+-------------+-------------+-----------------+ <-- min LBFGS
  
 LBFGS: finished iteration     1 with enthalpy= -1.36191012E+003 eV
  
 +-----------+-----------------+-----------------+------------+-----+ <-- LBFGS
 | Parameter |      value      |    tolerance    |    units   | OK? | <-- LBFGS
 +-----------+-----------------+-----------------+------------+-----+ <-- LBFGS
 |  dE/ion   |   6.111594E-001 |   2.000000E-005 |         eV | No  | <-- LBFGS
 |   Smax    |   1.082118E+001 |   1.000000E-001 |        GPa | No  | <-- LBFGS
 +-----------+-----------------+-----------------+------------+-----+ <-- LBFGS
  

================================================================================
 Starting LBFGS iteration          2 ...
================================================================================
  
 +------------+-------------+-------------+-----------------+ <-- min LBFGS
 |    Step    |   lambda    |   F.delta'  |    enthalpy     | <-- min LBFGS
 +------------+-------------+-------------+-----------------+ <-- min LBFGS
 |  previous  |    0.000000 |    0.927758 |    -1361.910124 | <-- min LBFGS
 +------------+-------------+-------------+-----------------+ <-- min LBFGS
  

--------------------------------------------------------------------------------
 LBFGS: starting iteration         2 with trial guess (lambda=  0.259677)
--------------------------------------------------------------------------------
 
                           -------------------------------
                                      Unit Cell
                           -------------------------------
        Real Lattice(A)              Reciprocal Lattice(1/A)
     5.5622943     0.0000000    -0.0000000        1.129603180  -0.000000000   0.000000000
     0.0000000     5.5622943     0.0000000       -0.000000000   1.129603180  -0.000000000
    -0.0000000     0.0000000     5.5622943        0.000000000  -0.000000000   1.129603180
 
                       Lattice parameters(A)       Cell Angles
                    a =      5.562294          alpha =   90.000000
                    b =      5.562294          beta  =   90.000000
                    c =      5.562294          gamma =   90.000000
 
                Current cell volume =           172.092477 A**3
                            density =             1.305577 amu/A**3
                                    =             2.167962 g/cm^3
 
------------------------------------------------------------------------ <-- SCF
SCF loop      Energy                           Energy gain       Timer   <-- SCF
                                               per atom          (sec)   <-- SCF
------------------------------------------------------------------------ <-- SCF
Initial  -1.36130161E+003                                         20.22  <-- SCF
      1  -1.36353421E+003                    2.79075190E-001      20.27  <-- SCF
      2  -1.36355320E+003                    2.37443857E-003      20.34  <-- SCF
      3  -1.36327701E+003                   -3.45240400E-002      20.41  <-- SCF
      4  -1.36315249E+003                   -1.55655303E-002      20.48  <-- SCF
      5  -1.36315704E+003                    5.68851988E-004      20.55  <-- SCF
      6  -1.36315711E+003                    8.41020567E-006      20.61  <-- SCF
      7  -1.36315711E+003                    9.21748063E-007      20.66  <-- SCF
      8  -1.36315712E+003                    2.59901192E-007      20.70  <-- SCF
------------------------------------------------------------------------ <-- SCF
 
Final energy =  -1363.157115530     eV
(energy not corrected for finite basis set)
 
 
 *********** Symmetrised Stress Tensor ***********
 *                                               *
 *          Cartesian components (GPa)           *
 * --------------------------------------------- *
 *             x             y             z     *
 *                                               *
 *  x      3.651874     -0.000000     -0.000000  *
 *  y     -0.000000      3.651874     -0.000000  *
 *  z     -0.000000     -0.000000      3.651874  *
 *                                               *
 *  Pressure:   -3.6519                          *
 *                                               *
 *************************************************
  
 +------------+-------------+-------------+-----------------+ <-- min LBFGS
 |    Step    |   lambda    |   F.delta'  |    enthalpy     | <-- min LBFGS
 +------------+-------------+-------------+-----------------+ <-- min LBFGS
 |  previous  |    0.000000 |    0.927758 |    -1361.910124 | <-- min LBFGS
 | trial step |    0.259677 |    0.285306 |    -1363.157111 | <-- min LBFGS
 +------------+-------------+-------------+-----------------+ <-- min LBFGS
  

--------------------------------------------------------------------------------
 LBFGS: improving iteration         2 with line minimization (lambda=  0.374996)
--------------------------------------------------------------------------------
 
                           -------------------------------
                                      Unit Cell
                           -------------------------------
        Real Lattice(A)              Reciprocal Lattice(1/A)
     5.4447932     0.0000000    -0.0000000        1.153980526  -0.000000000   0.000000000
     0.0000000     5.4447932     0.0000000       -0.000000000   1.153980526  -0.000000000
    -0.0000000     0.0000000     5.4447932        0.000000000  -0.000000000   1.153980526
 
                       Lattice parameters(A)       Cell Angles
                    a =      5.444793          alpha =   90.000000
                    b =      5.444793          beta  =   90.000000
                    c =      5.444793          gamma =   90.000000
 
                Current cell volume =           161.415102 A**3
                            density =             1.391939 amu/A**3
                                    =             2.311369 g/cm^3
 
------------------------------------------------------------------------ <-- SCF
SCF loop      Energy                           Energy gain       Timer   <-- SCF
                                               per atom          (sec)   <-- SCF
------------------------------------------------------------------------ <-- SCF
Initial  -1.36288202E+003                                         21.17  <-- SCF
      1  -1.36332408E+003                    5.52583787E-002      21.17  <-- SCF
      2  -1.36332787E+003                    4.73020837E-004      21.28  <-- SCF
      3  -1.36327187E+003                   -6.99937628E-003      21.34  <-- SCF
      4  -1.36324714E+003                   -3.09147425E-003      21.39  <-- SCF
      5  -1.36324795E+003                    1.00905688E-004      21.45  <-- SCF
      6  -1.36324796E+003                    1.55899503E-006      21.50  <-- SCF
      7  -1.36324796E+003                    2.59740157E-007      21.53  <-- SCF
------------------------------------------------------------------------ <-- SCF
 
Final energy =  -1363.247961605     eV
(energy not corrected for finite basis set)
 
 
 *********** Symmetrised Stress Tensor ***********
 *                                               *
 *          Cartesian components (GPa)           *
 * --------------------------------------------- *
 *             x             y             z     *
 *                                               *
 *  x     -1.642665      0.000000      0.000000  *
 *  y      0.000000     -1.642665      0.000000  *
 *  z      0.000000      0.000000     -1.642665  *
 *                                               *
 *  Pressure:    1.6427                          *
 *                                               *
 *************************************************
  
 +------------+-------------+-------------+-----------------+ <-- min LBFGS
 |    Step    |   lambda    |   F.delta'  |    enthalpy     | <-- min LBFGS
 +------------+-------------+-------------+-----------------+ <-- min LBFGS
 |  previous  |    0.000000 |    0.927758 |    -1361.910124 | <-- min LBFGS
 | trial step |    0.259677 |    0.285306 |    -1363.157111 | <-- min LBFGS
 |  line step |    0.374996 |   -0.122970 |    -1363.247950 | <-- min LBFGS
 +------------+-------------+-------------+-----------------+ <-- min LBFGS
  
 LBFGS: finished iteration     2 with enthalpy= -1.36324795E+003 eV
  
 +-----------+-----------------+-----------------+------------+-----+ <-- LBFGS
 | Parameter |      value      |    tolerance    |    units   | OK? | <-- LBFGS
 +-----------+-----------------+-----------------+------------+-----+ <-- LBFGS
 |  dE/ion   |   1.672282E-001 |   2.000000E-005 |         eV | No  | <-- LBFGS
 |   Smax    |   1.642665E+000 |   1.000000E-001 |        GPa | No  | <-- LBFGS
 +-----------+-----------------+-----------------+------------+-----+ <-- LBFGS
  

================================================================================
 Starting LBFGS iteration          3 ...
================================================================================
  
 +------------+-------------+-------------+-----------------+ <-- min LBFGS
 |    Step    |   lambda    |   F.delta'  |    enthalpy     | <-- min LBFGS
 +------------+-------------+-------------+-----------------+ <-- min LBFGS
 |  previous  |    0.000000 |    0.122970 |    -1363.247950 | <-- min LBFGS
 +------------+-------------+-------------+-----------------+ <-- min LBFGS
  

--------------------------------------------------------------------------------
 LBFGS: starting iteration         3 with trial guess (lambda=  1.000000)
--------------------------------------------------------------------------------
 
                           -------------------------------
                                      Unit Cell
                           -------------------------------
        Real Lattice(A)              Reciprocal Lattice(1/A)
     5.4895104     0.0000000    -0.0000000        1.144580281  -0.000000000   0.000000000
     0.0000000     5.4895104     0.0000000       -0.000000000   1.144580281  -0.000000000
    -0.0000000     0.0000000     5.4895104        0.000000000  -0.000000000   1.144580281
 
                       Lattice parameters(A)       Cell Angles
                    a =      5.489510          alpha =   90.000000
                    b =      5.489510          beta  =   90.000000
                    c =      5.489510          gamma =   90.000000
 
                Current cell volume =           165.424879 A**3
                            density =             1.358200 amu/A**3
                                    =             2.255343 g/cm^3
 
------------------------------------------------------------------------ <-- SCF
SCF loop      Energy                           Energy gain       Timer   <-- SCF
                                               per atom          (sec)   <-- SCF
------------------------------------------------------------------------ <-- SCF
Initial  -1.36320903E+003                                         21.91  <-- SCF
      1  -1.36327169E+003                    7.83274599E-003      21.97  <-- SCF
      2  -1.36327228E+003                    7.33805722E-005      22.02  <-- SCF
      3  -1.36326410E+003                   -1.02227479E-003      22.08  <-- SCF
      4  -1.36326051E+003                   -4.48621698E-004      22.12  <-- SCF
      5  -1.36326063E+003                    1.51524760E-005      22.16  <-- SCF
      6  -1.36326064E+003                    5.33247358E-007      22.20  <-- SCF
      7  -1.36326064E+003                    6.52578105E-008      22.25  <-- SCF
------------------------------------------------------------------------ <-- SCF
 
Final energy =  -1363.260639620     eV
(energy not corrected for finite basis set)
 
 
 *********** Symmetrised Stress Tensor ***********
 *                                               *
 *          Cartesian components (GPa)           *
 * --------------------------------------------- *
 *             x             y             z     *
 *                                               *
 *  x      0.584540      0.000000      0.000000  *
 *  y      0.000000      0.584540      0.000000  *
 *  z      0.000000      0.000000      0.584540  *
 *                                               *
 *  Pressure:   -0.5845                          *
 *                                               *
 *************************************************
  
 +------------+-------------+-------------+-----------------+ <-- min LBFGS
 |    Step    |   lambda    |   F.delta'  |    enthalpy     | <-- min LBFGS
 +------------+-------------+-------------+-----------------+ <-- min LBFGS
 |  previous  |    0.000000 |    0.122970 |    -1363.247950 | <-- min LBFGS
 | trial step |    1.000000 |   -0.044480 |    -1363.260644 | <-- min LBFGS
 +------------+-------------+-------------+-----------------+ <-- min LBFGS
  
 LBFGS: finished iteration     3 with enthalpy= -1.36326064E+003 eV
  
 +-----------+-----------------+-----------------+------------+-----+ <-- LBFGS
 | Parameter |      value      |    tolerance    |    units   | OK? | <-- LBFGS
 +-----------+-----------------+-----------------+------------+-----+ <-- LBFGS
 |  dE/ion   |   1.586800E-003 |   2.000000E-005 |         eV | No  | <-- LBFGS
 |   Smax    |   5.845399E-001 |   1.000000E-001 |        GPa | No  | <-- LBFGS
 +-----------+-----------------+-----------------+------------+-----+ <-- LBFGS
  

================================================================================
 Starting LBFGS iteration          4 ...
================================================================================
  
 +------------+-------------+-------------+-----------------+ <-- min LBFGS
 |    Step    |   lambda    |   F.delta'  |    enthalpy     | <-- min LBFGS
 +------------+-------------+-------------+-----------------+ <-- min LBFGS
 |  previous  |    0.000000 |    0.044480 |    -1363.260644 | <-- min LBFGS
 +------------+-------------+-------------+-----------------+ <-- min LBFGS
  

--------------------------------------------------------------------------------
 LBFGS: starting iteration         4 with trial guess (lambda=  1.000000)
--------------------------------------------------------------------------------
 
                           -------------------------------
                                      Unit Cell
                           -------------------------------
        Real Lattice(A)              Reciprocal Lattice(1/A)
     5.4776320     0.0000000    -0.0000000        1.147062330  -0.000000000   0.000000000
     0.0000000     5.4776320     0.0000000       -0.000000000   1.147062330  -0.000000000
    -0.0000000     0.0000000     5.4776320        0.000000000  -0.000000000   1.147062330
 
                       Lattice parameters(A)       Cell Angles
                    a =      5.477632          alpha =   90.000000
                    b =      5.477632          beta  =   90.000000
                    c =      5.477632          gamma =   90.000000
 
                Current cell volume =           164.353347 A**3
                            density =             1.367055 amu/A**3
                                    =             2.270047 g/cm^3
 
------------------------------------------------------------------------ <-- SCF
SCF loop      Energy                           Energy gain       Timer   <-- SCF
                                               per atom          (sec)   <-- SCF
------------------------------------------------------------------------ <-- SCF
Initial  -1.36325885E+003                                         22.64  <-- SCF
      1  -1.36326346E+003                    5.75850320E-004      22.69  <-- SCF
      2  -1.36326349E+003                    4.48016330E-006      22.73  <-- SCF
      3  -1.36326292E+003                   -7.10914926E-005      22.77  <-- SCF
      4  -1.36326267E+003                   -3.19723700E-005      22.84  <-- SCF
      5  -1.36326268E+003                    1.04897461E-006      22.88  <-- SCF
      6  -1.36326268E+003                    3.69681658E-008      22.92  <-- SCF
------------------------------------------------------------------------ <-- SCF
 
Final energy =  -1363.262676629     eV
(energy not corrected for finite basis set)
 
 
 *********** Symmetrised Stress Tensor ***********
 *                                               *
 *          Cartesian components (GPa)           *
 * --------------------------------------------- *
 *             x             y             z     *
 *                                               *
 *  x      0.014999     -0.000000     -0.000000  *
 *  y     -0.000000      0.014999     -0.000000  *
 *  z     -0.000000     -0.000000      0.014999  *
 *                                               *
 *  Pressure:   -0.0150                          *
 *                                               *
 *************************************************
  
 +------------+-------------+-------------+-----------------+ <-- min LBFGS
 |    Step    |   lambda    |   F.delta'  |    enthalpy     | <-- min LBFGS
 +------------+-------------+-------------+-----------------+ <-- min LBFGS
 |  previous  |    0.000000 |    0.044480 |    -1363.260644 | <-- min LBFGS
 | trial step |    1.000000 |    0.001136 |    -1363.262669 | <-- min LBFGS
 +------------+-------------+-------------+-----------------+ <-- min LBFGS
  
 LBFGS: finished iteration     4 with enthalpy= -1.36326267E+003 eV
  
 +-----------+-----------------+-----------------+------------+-----+ <-- LBFGS
 | Parameter |      value      |    tolerance    |    units   | OK? | <-- LBFGS
 +-----------+-----------------+-----------------+------------+-----+ <-- LBFGS
 |  dE/ion   |   2.530410E-004 |   2.000000E-005 |         eV | No  | <-- LBFGS
 |   Smax    |   1.499858E-002 |   1.000000E-001 |        GPa | Yes | <-- LBFGS
 +-----------+-----------------+-----------------+------------+-----+ <-- LBFGS
  

================================================================================
 Starting LBFGS iteration          5 ...
================================================================================

Writing analysis data to 100Len_GGA-PBE.castep_bin

Writing model to 100Len_GGA-PBE.check
  
 +------------+-------------+-------------+-----------------+ <-- min LBFGS
 |    Step    |   lambda    |   F.delta'  |    enthalpy     | <-- min LBFGS
 +------------+-------------+-------------+-----------------+ <-- min LBFGS
 |  previous  |    0.000000 |    0.001136 |    -1363.262669 | <-- min LBFGS
 +------------+-------------+-------------+-----------------+ <-- min LBFGS
  

--------------------------------------------------------------------------------
 LBFGS: starting iteration         5 with trial guess (lambda=  1.000000)
--------------------------------------------------------------------------------
 
                           -------------------------------
                                      Unit Cell
                           -------------------------------
        Real Lattice(A)              Reciprocal Lattice(1/A)
     5.4773206     0.0000000    -0.0000000        1.147127548  -0.000000000   0.000000000
     0.0000000     5.4773206     0.0000000       -0.000000000   1.147127548  -0.000000000
    -0.0000000     0.0000000     5.4773206        0.000000000  -0.000000000   1.147127548
 
                       Lattice parameters(A)       Cell Angles
                    a =      5.477321          alpha =   90.000000
                    b =      5.477321          beta  =   90.000000
                    c =      5.477321          gamma =   90.000000
 
                Current cell volume =           164.325316 A**3
                            density =             1.367288 amu/A**3
                                    =             2.270435 g/cm^3
 
------------------------------------------------------------------------ <-- SCF
SCF loop      Energy                           Energy gain       Timer   <-- SCF
                                               per atom          (sec)   <-- SCF
------------------------------------------------------------------------ <-- SCF
Initial  -1.36326251E+003                                         23.39  <-- SCF
      1  -1.36326268E+003                    2.09901750E-005      23.41  <-- SCF
      2  -1.36326268E+003                    2.70311391E-008      23.44  <-- SCF
      3  -1.36326268E+003                   -4.66633618E-008      23.48  <-- SCF
      4  -1.36326268E+003                   -2.60855440E-008      23.52  <-- SCF
------------------------------------------------------------------------ <-- SCF
 
Final energy =  -1363.262678761     eV
(energy not corrected for finite basis set)
 
 
 *********** Symmetrised Stress Tensor ***********
 *                                               *
 *          Cartesian components (GPa)           *
 * --------------------------------------------- *
 *             x             y             z     *
 *                                               *
 *  x      0.002025     -0.000000      0.000000  *
 *  y     -0.000000      0.002025      0.000000  *
 *  z      0.000000      0.000000      0.002025  *
 *                                               *
 *  Pressure:   -0.0020                          *
 *                                               *
 *************************************************
  
 +------------+-------------+-------------+-----------------+ <-- min LBFGS
 |    Step    |   lambda    |   F.delta'  |    enthalpy     | <-- min LBFGS
 +------------+-------------+-------------+-----------------+ <-- min LBFGS
 |  previous  |    0.000000 |    0.001136 |    -1363.262669 | <-- min LBFGS
 | trial step |    1.000000 |    0.000153 |    -1363.262670 | <-- min LBFGS
 +------------+-------------+-------------+-----------------+ <-- min LBFGS
  
 LBFGS: finished iteration     5 with enthalpy= -1.36326267E+003 eV
  
 +-----------+-----------------+-----------------+------------+-----+ <-- LBFGS
 | Parameter |      value      |    tolerance    |    units   | OK? | <-- LBFGS
 +-----------+-----------------+-----------------+------------+-----+ <-- LBFGS
 |  dE/ion   |   2.249200E-007 |   2.000000E-005 |         eV | Yes | <-- LBFGS
 |   Smax    |   2.025455E-003 |   1.000000E-001 |        GPa | Yes | <-- LBFGS
 +-----------+-----------------+-----------------+------------+-----+ <-- LBFGS
  
 LBFGS: Geometry optimization completed successfully.

================================================================================
 LBFGS: Final Configuration:
================================================================================
 
                           -------------------------------
                                      Unit Cell
                           -------------------------------
        Real Lattice(A)              Reciprocal Lattice(1/A)
     5.4773206     0.0000000    -0.0000000        1.147127548  -0.000000000   0.000000000
     0.0000000     5.4773206     0.0000000       -0.000000000   1.147127548  -0.000000000
    -0.0000000     0.0000000     5.4773206        0.000000000  -0.000000000   1.147127548
 
                       Lattice parameters(A)       Cell Angles
                    a =      5.477321          alpha =   90.000000
                    b =      5.477321          beta  =   90.000000
                    c =      5.477321          gamma =   90.000000
 
                Current cell volume =           164.325316 A**3
                            density =             1.367288 amu/A**3
                                    =             2.270435 g/cm^3
 
 LBFGS: Final Enthalpy     = -1.36326267E+003 eV
 LBFGS: Final bulk modulus =      87.94186 GPa
 
 ******************************** Symmetrised Forces ********************************
 *                                                                                  *
 *                           Cartesian components (eV/A)                            *
 * -------------------------------------------------------------------------------- *
 *                         x                    y                    z              *
 *                                                                                  *
 * Si              1     -0.00000             -0.00000             -0.00000         *
 * Si              2      0.00000             -0.00000             -0.00000         *
 * Si              3      0.00000              0.00000             -0.00000         *
 * Si              4      0.00000             -0.00000              0.00000         *
 * Si              5     -0.00000              0.00000              0.00000         *
 * Si              6     -0.00000              0.00000              0.00000         *
 * Si              7     -0.00000              0.00000              0.00000         *
 * Si              8     -0.00000              0.00000             -0.00000         *
 *                                                                                  *
 ************************************************************************************
 
 *********** Symmetrised Stress Tensor ***********
 *                                               *
 *          Cartesian components (GPa)           *
 * --------------------------------------------- *
 *             x             y             z     *
 *                                               *
 *  x      0.002025     -0.000000      0.000000  *
 *  y     -0.000000      0.002025      0.000000  *
 *  z      0.000000      0.000000      0.002025  *
 *                                               *
 *  Pressure:   -0.0020                          *
 *                                               *
 *************************************************

Writing analysis data to 100Len_GGA-PBE.castep_bin

Writing model to 100Len_GGA-PBE.check
 
 A BibTeX formatted list of references used in this run has been written to 
 100Len_GGA-PBE.bib
 
Initialisation time =     12.31 s
Calculation time    =     11.56 s
Finalisation time   =      0.09 s
Total time          =     23.97 s
  
Overall parallel efficiency rating: Poor (42%)                                  
  
Data was distributed by:-
G-vector (12-way); efficiency rating: Poor (42%)                                
  
Parallel notes:
1) Calculation only took 24.0 s, so efficiency estimates may be inaccurate.     
