#BIOSYM hessian 1
@Type: Hessian Update
@Units
 distance: 	A
 energy: 	Kcal/Mol
#header
@natom 4

#label
G1      N2      G3      N4

#element
Ga N  Ga N 

#matrix
12
 0.000000000000E+00
 0.000000000000E+00 0.000000000000E+00
 1.027965906359E-12 4.784852222345E-12 8.302639040441E+02
 0.000000000000E+00 0.000000000000E+00 -1.598189597693E-12 0.000000000000E+00
 0.000000000000E+00 0.000000000000E+00 -6.904723460092E-12 0.000000000000E+00 0.000000000000E+00
 -1.027965906359E-12 -4.784852222345E-12 -8.302639040441E+02 1.598189597693E-12 6.904723460092E-12 8.302639040441E+02
 0.000000000000E+00 0.000000000000E+00 1.588387287020E-12 0.000000000000E+00 0.000000000000E+00 -1.588387287020E-12 0.000000000000E+00
 0.000000000000E+00 0.000000000000E+00 6.882981190987E-12 0.000000000000E+00 0.000000000000E+00 -6.882981190987E-12 0.000000000000E+00 0.000000000000E+00
 1.027965906359E-12 4.784852222345E-12 8.302639040441E+02 -1.598189597693E-12 -6.904723460092E-12 -8.302639040441E+02 1.588387287020E-12 6.882981190987E-12 8.302639040441E+02
 0.000000000000E+00 0.000000000000E+00 -1.024508491042E-12 0.000000000000E+00 0.000000000000E+00 1.024508491042E-12 0.000000000000E+00 0.000000000000E+00 -1.024508491042E-12 0.000000000000E+00
 0.000000000000E+00 0.000000000000E+00 -4.777087126236E-12 0.000000000000E+00 0.000000000000E+00 4.777087126236E-12 0.000000000000E+00 0.000000000000E+00 -4.777087126236E-12 0.000000000000E+00 0.000000000000E+00
 -1.027965906359E-12 -4.784852222345E-12 -8.302639040441E+02 1.598189597693E-12 6.904723460092E-12 8.302639040441E+02 -1.588387287020E-12 -6.882981190987E-12 -8.302639040441E+02 1.024508491042E-12 4.777087126236E-12 8.302639040441E+02

