#BIOSYM hessian 1
@Type: Hessian Update
@Units
 distance: 	A
 energy: 	Kcal/Mol
#header
@natom 4

#label
G1      N2      G3      N4

#element
Ga N  Ga N 

#matrix
12
 0.000000000000E+00
 0.000000000000E+00 0.000000000000E+00
 3.140234330961E-12 6.462383493560E-12 8.291221432063E+02
 0.000000000000E+00 0.000000000000E+00 -3.731966419938E-12 0.000000000000E+00
 0.000000000000E+00 0.000000000000E+00 -6.842706327075E-12 0.000000000000E+00 0.000000000000E+00
 -3.140234330961E-12 -6.462383493560E-12 -8.291221432063E+02 3.731966419938E-12 6.842706327075E-12 8.291221432063E+02
 0.000000000000E+00 0.000000000000E+00 3.711265415539E-12 0.000000000000E+00 0.000000000000E+00 -3.711265415539E-12 0.000000000000E+00
 0.000000000000E+00 0.000000000000E+00 6.830287622307E-12 0.000000000000E+00 0.000000000000E+00 -6.830287622307E-12 0.000000000000E+00 0.000000000000E+00
 3.140234330961E-12 6.462383493560E-12 8.291221432063E+02 -3.731966419938E-12 -6.842706327075E-12 -8.291221432063E+02 3.711265415539E-12 6.830287622307E-12 8.291221432063E+02
 0.000000000000E+00 0.000000000000E+00 -3.135202344726E-12 0.000000000000E+00 0.000000000000E+00 3.135202344726E-12 0.000000000000E+00 0.000000000000E+00 -3.135202344726E-12 0.000000000000E+00
 0.000000000000E+00 0.000000000000E+00 -6.451517126889E-12 0.000000000000E+00 0.000000000000E+00 6.451517126889E-12 0.000000000000E+00 0.000000000000E+00 -6.451517126889E-12 0.000000000000E+00 0.000000000000E+00
 -3.140234330961E-12 -6.462383493560E-12 -8.291221432063E+02 3.731966419938E-12 6.842706327075E-12 8.291221432063E+02 -3.711265415539E-12 -6.830287622307E-12 -8.291221432063E+02 3.135202344726E-12 6.451517126889E-12 8.291221432063E+02

