#BIOSYM hessian 1
@Type: Hessian Update
@Units
 distance: 	A
 energy: 	Kcal/Mol
#header
@natom 4

#label
G1      N2      G3      N4

#element
Ga N  Ga N 

#matrix
12
 0.000000000000E+00
 0.000000000000E+00 0.000000000000E+00
 -1.275950409855E-12 -8.614993643181E-12 8.300610553282E+02
 0.000000000000E+00 0.000000000000E+00 1.317861189741E-12 0.000000000000E+00
 0.000000000000E+00 0.000000000000E+00 1.018742401445E-11 0.000000000000E+00 0.000000000000E+00
 1.275950409855E-12 8.614993643181E-12 -8.300610553282E+02 -1.317861189741E-12 -1.018742401445E-11 8.300610553282E+02
 0.000000000000E+00 0.000000000000E+00 -1.322517943061E-12 0.000000000000E+00 0.000000000000E+00 1.322517943061E-12 0.000000000000E+00
 0.000000000000E+00 0.000000000000E+00 -1.016414024785E-11 0.000000000000E+00 0.000000000000E+00 1.016414024785E-11 0.000000000000E+00 0.000000000000E+00
 -1.275950409855E-12 -8.614993643181E-12 8.300610553282E+02 1.317861189741E-12 1.018742401445E-11 -8.300610553282E+02 -1.322517943061E-12 -1.016414024785E-11 8.300610553282E+02
 0.000000000000E+00 0.000000000000E+00 1.266636903214E-12 0.000000000000E+00 0.000000000000E+00 -1.266636903214E-12 0.000000000000E+00 0.000000000000E+00 1.266636903214E-12 0.000000000000E+00
 0.000000000000E+00 0.000000000000E+00 8.580844118830E-12 0.000000000000E+00 0.000000000000E+00 -8.580844118830E-12 0.000000000000E+00 0.000000000000E+00 8.580844118830E-12 0.000000000000E+00 0.000000000000E+00
 1.275950409855E-12 8.614993643181E-12 -8.300610553282E+02 -1.317861189741E-12 -1.018742401445E-11 8.300610553282E+02 1.322517943061E-12 1.016414024785E-11 -8.300610553282E+02 -1.266636903214E-12 -8.580844118830E-12 8.300610553282E+02

