#BIOSYM hessian 1
@Type: Hessian Update
@Units
 distance: 	A
 energy: 	Kcal/Mol
#header
@natom 4

#label
G1      N2      G3      N4

#element
Ga N  Ga N 

#matrix
12
 0.000000000000E+00
 0.000000000000E+00 0.000000000000E+00
 4.442113479895E-12 -1.266435638877E-11 8.319008662293E+02
 0.000000000000E+00 0.000000000000E+00 -6.898383105002E-12 0.000000000000E+00
 0.000000000000E+00 0.000000000000E+00 1.252622799188E-11 0.000000000000E+00 0.000000000000E+00
 -4.442113479895E-12 1.266435638877E-11 -8.319008662293E+02 6.898383105002E-12 -1.252622799188E-11 8.319008662293E+02
 0.000000000000E+00 0.000000000000E+00 6.889585867659E-12 0.000000000000E+00 0.000000000000E+00 -6.889585867659E-12 0.000000000000E+00
 0.000000000000E+00 0.000000000000E+00 -1.249673990716E-11 0.000000000000E+00 0.000000000000E+00 1.249673990716E-11 0.000000000000E+00 0.000000000000E+00
 4.442113479895E-12 -1.266435638877E-11 8.319008662293E+02 -6.898383105002E-12 1.252622799188E-11 -8.319008662293E+02 6.889585867659E-12 -1.249673990716E-11 8.319008662293E+02
 0.000000000000E+00 0.000000000000E+00 -4.434591529943E-12 0.000000000000E+00 0.000000000000E+00 4.434591529943E-12 0.000000000000E+00 0.000000000000E+00 -4.434591529943E-12 0.000000000000E+00
 0.000000000000E+00 0.000000000000E+00 1.264573233526E-11 0.000000000000E+00 0.000000000000E+00 -1.264573233526E-11 0.000000000000E+00 0.000000000000E+00 1.264573233526E-11 0.000000000000E+00 0.000000000000E+00
 -4.442113479895E-12 1.266435638877E-11 -8.319008662293E+02 6.898383105002E-12 -1.252622799188E-11 8.319008662293E+02 -6.889585867659E-12 1.249673990716E-11 -8.319008662293E+02 4.434591529943E-12 -1.264573233526E-11 8.319008662293E+02

