#BIOSYM hessian 1
@Type: Hessian Update
@Units
 distance: 	A
 energy: 	Kcal/Mol
#header
@natom 4

#label
G1      N2      G3      N4

#element
Ga N  Ga N 

#matrix
12
 0.000000000000E+00
 0.000000000000E+00 0.000000000000E+00
 0.000000000000E+00 5.659166982366E-12 8.248698313859E+02
 0.000000000000E+00 0.000000000000E+00 0.000000000000E+00 0.000000000000E+00
 0.000000000000E+00 0.000000000000E+00 -6.058290449564E-12 0.000000000000E+00 0.000000000000E+00
 0.000000000000E+00 -5.659166982366E-12 -8.248698313859E+02 0.000000000000E+00 6.058290449564E-12 8.248698313859E+02
 0.000000000000E+00 0.000000000000E+00 0.000000000000E+00 0.000000000000E+00 0.000000000000E+00 0.000000000000E+00 0.000000000000E+00
 0.000000000000E+00 0.000000000000E+00 6.050525401564E-12 0.000000000000E+00 0.000000000000E+00 -6.050525401564E-12 0.000000000000E+00 0.000000000000E+00
 0.000000000000E+00 5.659166982366E-12 8.248698313859E+02 0.000000000000E+00 -6.058290449564E-12 -8.248698313859E+02 0.000000000000E+00 6.050525401564E-12 8.248698313859E+02
 0.000000000000E+00 0.000000000000E+00 0.000000000000E+00 0.000000000000E+00 0.000000000000E+00 0.000000000000E+00 0.000000000000E+00 0.000000000000E+00 0.000000000000E+00 0.000000000000E+00
 0.000000000000E+00 0.000000000000E+00 -5.659166982366E-12 0.000000000000E+00 0.000000000000E+00 5.659166982366E-12 0.000000000000E+00 0.000000000000E+00 -5.659166982366E-12 0.000000000000E+00 0.000000000000E+00
 0.000000000000E+00 -5.659166982366E-12 -8.248698313859E+02 0.000000000000E+00 6.058290449564E-12 8.248698313859E+02 0.000000000000E+00 -6.050525401564E-12 -8.248698313859E+02 0.000000000000E+00 5.659166982366E-12 8.248698313859E+02

