#BIOSYM hessian 1
@Type: Hessian Update
@Units
 distance: 	A
 energy: 	Kcal/Mol
#header
@natom 4

#label
G1      N2      G3      N4

#element
Ga N  Ga N 

#matrix
12
 0.000000000000E+00
 0.000000000000E+00 0.000000000000E+00
 0.000000000000E+00 -4.203208881138E-12 8.309928086118E+02
 0.000000000000E+00 0.000000000000E+00 0.000000000000E+00 0.000000000000E+00
 0.000000000000E+00 0.000000000000E+00 4.369288404876E-12 0.000000000000E+00 0.000000000000E+00
 0.000000000000E+00 4.203208881138E-12 -8.309928086118E+02 0.000000000000E+00 -4.369288404876E-12 8.309928086118E+02
 0.000000000000E+00 0.000000000000E+00 0.000000000000E+00 0.000000000000E+00 0.000000000000E+00 0.000000000000E+00 0.000000000000E+00
 0.000000000000E+00 0.000000000000E+00 -4.370840549958E-12 0.000000000000E+00 0.000000000000E+00 4.370840549958E-12 0.000000000000E+00 0.000000000000E+00
 0.000000000000E+00 -4.203208881138E-12 8.309928086118E+02 0.000000000000E+00 4.369288404876E-12 -8.309928086118E+02 0.000000000000E+00 -4.370840549958E-12 8.309928086118E+02
 0.000000000000E+00 0.000000000000E+00 0.000000000000E+00 0.000000000000E+00 0.000000000000E+00 0.000000000000E+00 0.000000000000E+00 0.000000000000E+00 0.000000000000E+00 0.000000000000E+00
 0.000000000000E+00 0.000000000000E+00 4.190791720485E-12 0.000000000000E+00 0.000000000000E+00 -4.190791720485E-12 0.000000000000E+00 0.000000000000E+00 4.190791720485E-12 0.000000000000E+00 0.000000000000E+00
 0.000000000000E+00 4.203208881138E-12 -8.309928086118E+02 0.000000000000E+00 -4.369288404876E-12 8.309928086118E+02 0.000000000000E+00 4.370840549958E-12 -8.309928086118E+02 0.000000000000E+00 -4.190791720485E-12 8.309928086118E+02

