#BIOSYM hessian 1
@Type: Hessian Update
@Units
 distance: 	A
 energy: 	Kcal/Mol
#header
@natom 4

#label
G1      N2      G3      N4

#element
Ga N  Ga N 

#matrix
12
 0.000000000000E+00
 0.000000000000E+00 0.000000000000E+00
 3.138721985770E-12 6.502826895383E-12 8.291432097937E+02
 0.000000000000E+00 0.000000000000E+00 -3.708728344985E-12 0.000000000000E+00
 0.000000000000E+00 0.000000000000E+00 -6.811746100964E-12 0.000000000000E+00 0.000000000000E+00
 -3.138721985770E-12 -6.502826895383E-12 -8.291432097937E+02 3.708728344985E-12 6.811746100964E-12 8.291432097937E+02
 0.000000000000E+00 0.000000000000E+00 3.711312714253E-12 0.000000000000E+00 0.000000000000E+00 -3.711312714253E-12 0.000000000000E+00
 0.000000000000E+00 0.000000000000E+00 6.799327238428E-12 0.000000000000E+00 0.000000000000E+00 -6.799327238428E-12 0.000000000000E+00 0.000000000000E+00
 3.138721985770E-12 6.502826895383E-12 8.291432097937E+02 -3.708728344985E-12 -6.811746100964E-12 -8.291432097937E+02 3.711312714253E-12 6.799327238428E-12 8.291432097937E+02
 0.000000000000E+00 0.000000000000E+00 -3.135242443959E-12 0.000000000000E+00 0.000000000000E+00 3.135242443959E-12 0.000000000000E+00 0.000000000000E+00 -3.135242443959E-12 0.000000000000E+00
 0.000000000000E+00 0.000000000000E+00 -6.495065106298E-12 0.000000000000E+00 0.000000000000E+00 6.495065106298E-12 0.000000000000E+00 0.000000000000E+00 -6.495065106298E-12 0.000000000000E+00 0.000000000000E+00
 -3.138721985770E-12 -6.502826895383E-12 -8.291432097937E+02 3.708728344985E-12 6.811746100964E-12 8.291432097937E+02 -3.711312714253E-12 -6.799327238428E-12 -8.291432097937E+02 3.135242443959E-12 6.495065106298E-12 8.291432097937E+02

